                         Program Version 4.1.0  - RELEASE  -
|  1> ! B3LYP 6-31G* TIGHTSCF Grid3 FinalGrid5 Opt
|  2> !NormalPrint
|  3> %output
|  4> Print[P_Basis] 2
|  5> Print[P_MOS] 1
|  6> end
|  7> *xyzfile 0 1 /Users/lailaal-madhagi/Desktop/Testing_XAS_Analysis_code/Acetaldehyde/Acetaldehyde_geom.xyz                           ****END OF INPUT****
 Total Charge           Charge          ....    0
 Multiplicity           Mult            ....    1
 Number of Electrons    NEL             ....   24
FINAL SINGLE POINT ENERGY      -153.734696480609
FINAL SINGLE POINT ENERGY      -153.736527013075
FINAL SINGLE POINT ENERGY      -153.736815011131
FINAL SINGLE POINT ENERGY      -153.736855885851
FINAL SINGLE POINT ENERGY      -153.736858238540
FINAL SINGLE POINT ENERGY      -153.736863362690
FINAL SINGLE POINT ENERGY      -153.736864707615
                    ***********************HURRAY********************

CARTESIAN COORDINATES (ANGSTROEM)
---------------------------------
  C     -3.777471   -0.109363    0.005595
  C     -2.298433    0.224446   -0.003916
  H     -4.274081    0.454277    0.804525
  H     -3.955988   -1.178696    0.151877
  H     -4.229633    0.207753   -0.941816
  O     -1.866475    1.345882   -0.151532
  H     -1.602669   -0.634009    0.135268

 Multiplicity           Mult            ....    1
 Number of Electrons    NEL             ....   24
 Basis Dimension        Dim             ....   50

ORBITAL ENERGIES
----------------

  NO   OCC          E(Eh)            E(eV)
   0   2.0000     -19.142499      -520.8939
   1   2.0000     -10.272722      -279.5350
   2   2.0000     -10.185559      -277.1632
   3   2.0000      -1.042242       -28.3609
   4   2.0000      -0.746884       -20.3238
   5   2.0000      -0.578259       -15.7352
   6   2.0000      -0.472042       -12.8449
   7   2.0000      -0.440486       -11.9862
   8   2.0000      -0.429751       -11.6941
   9   2.0000      -0.395254       -10.7554
  10   2.0000      -0.358041        -9.7428
  11   2.0000      -0.251111        -6.8331
  12   0.0000      -0.023793        -0.6474
  13   0.0000       0.112324         3.0565
  14   0.0000       0.120517         3.2794
  15   0.0000       0.172161         4.6847
  16   0.0000       0.176088         4.7916

------------------
MOLECULAR ORBITALS
------------------
                      0         1         2         3         4         5
                 -19.14250 -10.27272 -10.18556  -1.04224  -0.74688  -0.57826
                   2.00000   2.00000   2.00000   2.00000   2.00000   2.00000
                  --------  --------  --------  --------  --------  --------
  0C   1s        -0.000015 -0.000873 -0.995262 -0.017887 -0.182102 -0.068714
  0C   2s         0.000227  0.000885 -0.037332  0.033713  0.350076  0.134230
  0C   1pz       -0.000020  0.000009  0.000009 -0.001112  0.000467 -0.007785
  0C   1px        0.000279  0.000972 -0.000202  0.023059  0.037393 -0.172207
  0C   1py        0.000196  0.000114 -0.000098  0.011995  0.003142  0.023912
  0C   3s         0.000467 -0.004967  0.032550  0.018749  0.317047  0.165357
  0C   2pz       -0.000217 -0.000198 -0.000057 -0.001426  0.000652 -0.002391
  0C   2px        0.000036 -0.003442  0.001372  0.000411  0.002423 -0.053432
  0C   2py        0.001539  0.000784  0.000650  0.010263 -0.003161  0.007033
  0C   1dz2       0.000095 -0.000560  0.000035 -0.002102  0.000070  0.008270
  0C   1dxz      -0.000065 -0.000022 -0.000000 -0.000325  0.000143 -0.000312
  0C   1dyz       0.000040  0.000009  0.000004  0.000024 -0.000007  0.000397
  0C   1dx2y2     0.000036  0.000940 -0.000026  0.003154 -0.000050 -0.011142
  0C   1dxy       0.000437  0.000502 -0.000015  0.003520 -0.001069 -0.002391
  1C   1s        -0.000226 -0.995146  0.000830 -0.117356 -0.078435  0.135467
  1C   2s        -0.000005 -0.035693  0.001227  0.224226  0.158554 -0.285763
  1C   1pz       -0.000035  0.000282 -0.000011 -0.022833  0.012219 -0.030441
  1C   1px       -0.000090 -0.000595 -0.000554  0.062830 -0.141260 -0.101220
  1C   1py        0.000229 -0.002097 -0.000024  0.172783 -0.111835  0.196768
  1C   3s        -0.009043  0.015895 -0.007335  0.083851  0.118800 -0.267658
  1C   2pz        0.000974  0.000710 -0.000014  0.003019  0.003579 -0.013457
  1C   2px       -0.000882 -0.002897  0.004042  0.000356 -0.026199 -0.019768
  1C   2py       -0.007041 -0.005545  0.000828 -0.021406 -0.030334  0.092198
  1C   1dz2      -0.000250  0.001143 -0.000453 -0.014902 -0.005043  0.004738
  1C   1dxz      -0.000096  0.000128 -0.000029 -0.002009  0.001073 -0.002123
  1C   1dyz      -0.000138  0.000399  0.000029 -0.006013  0.000628  0.001443
  1C   1dx2y2    -0.000641  0.000984  0.000896 -0.018700  0.013754 -0.000698
  1C   1dxy       0.000646 -0.001094  0.000505  0.015637 -0.003516  0.013329
  2H   1s        -0.000121  0.000346  0.000522  0.006631  0.112067  0.097243
  2H   2s         0.000037 -0.001002 -0.005792 -0.001168  0.023369  0.046828
  3H   1s         0.000244  0.000475  0.000585  0.005359  0.114500  0.057825
  3H   2s         0.000069  0.000035 -0.005603  0.000606  0.023975  0.022999
  4H   1s        -0.000121  0.000346  0.000522  0.006637  0.112094  0.097259
  4H   2s         0.000036 -0.001002 -0.005792 -0.001161  0.023533  0.046852
  5O   1s        -0.995112  0.000049  0.000013 -0.194350  0.053781 -0.069200
  5O   2s        -0.029412 -0.000452  0.000389  0.428597 -0.124342  0.162698
  5O   1pz       -0.000279  0.000130  0.000007  0.019874 -0.000927 -0.019759
  5O   1px        0.000845 -0.000442 -0.000139 -0.059740 -0.024337 -0.024282
  5O   1py        0.002123 -0.000998 -0.000073 -0.151265  0.002150  0.135349
  5O   3s         0.019293  0.005868 -0.000465  0.375228 -0.124950  0.195415
  5O   2pz        0.000676  0.000581 -0.000053  0.005731  0.000726 -0.010774
  5O   2px       -0.002374 -0.001305 -0.000165 -0.019121 -0.011957 -0.007262
  5O   2py       -0.005204 -0.004341  0.000344 -0.043885 -0.007218  0.074718
  5O   1dz2      -0.000075 -0.001064  0.000243 -0.002952 -0.001731  0.004848
  5O   1dxz      -0.000025 -0.000127 -0.000025 -0.001156 -0.000304 -0.000009
  5O   1dyz      -0.000023 -0.000420  0.000074 -0.001696 -0.000277  0.002691
  5O   1dx2y2    -0.000064 -0.001249  0.000068 -0.008046  0.000575  0.010158
  5O   1dxy       0.000189  0.001015  0.000114  0.007696  0.002803  0.000321
  6H   1s         0.000247  0.001000  0.000388  0.028022  0.051450 -0.212760
  6H   2s        -0.001188 -0.005071 -0.000362 -0.011172  0.011571 -0.101846
                      6         7         8         9        10        11
                  -0.47204  -0.44049  -0.42975  -0.39525  -0.35804  -0.25111
                   2.00000   2.00000   2.00000   2.00000   2.00000   2.00000
                  --------  --------  --------  --------  --------  --------
  0C   1s         0.017329 -0.000005 -0.004555 -0.001623 -0.000011  0.036974
  0C   2s        -0.031989 -0.000069  0.009227  0.003723 -0.000054 -0.070879
  0C   1pz       -0.030151  0.378067 -0.018420  0.053130  0.233917  0.001874
  0C   1px        0.172061 -0.009546 -0.277484  0.080442 -0.005973 -0.226293
  0C   1py        0.244268  0.053486  0.081262 -0.361648  0.033087 -0.053870
  0C   3s        -0.044182  0.000166  0.014041 -0.004150  0.000323 -0.278423
  0C   2pz       -0.014885  0.177149 -0.008715  0.023661  0.142646 -0.005662
  0C   2px        0.065588 -0.004373 -0.139636  0.031683 -0.003533 -0.176235
  0C   2py        0.116227  0.024779  0.036701 -0.161406  0.020083  0.007929
  0C   1dz2       0.001737 -0.004343  0.010739 -0.014883 -0.002722  0.000762
  0C   1dxz      -0.000575 -0.008592  0.000087 -0.001659 -0.017502  0.000188
  0C   1dyz       0.002469  0.015796  0.001776 -0.005400  0.007734 -0.000855
  0C   1dx2y2     0.013140 -0.002056 -0.005394 -0.014320 -0.000674 -0.006743
  0C   1dxy       0.005825 -0.001632 -0.004975  0.013912 -0.002679 -0.002742
  1C   1s        -0.044797  0.000003 -0.008124 -0.004787  0.000006  0.001421
  1C   2s         0.104636  0.000017  0.026481  0.019298 -0.000024 -0.016682
  1C   1pz       -0.035356  0.231696 -0.021593 -0.031438 -0.269854  0.010076
  1C   1px       -0.259249 -0.006003  0.299898 -0.049972  0.006848  0.141257
  1C   1py        0.203016  0.032703  0.207444  0.213168 -0.038107 -0.045919
  1C   3s         0.066796 -0.000139 -0.010325 -0.041938 -0.000057  0.024532
  1C   2pz       -0.007874  0.117163 -0.001416 -0.004801 -0.172893  0.002778
  1C   2px       -0.091014 -0.003080  0.089032 -0.046836  0.004619 -0.065597
  1C   2py        0.039571  0.016696  0.026377  0.025851 -0.024470 -0.031391
  1C   1dz2       0.001545 -0.002533 -0.002282 -0.000942  0.005334 -0.000928
  1C   1dxz       0.000220 -0.006223 -0.000689 -0.002869 -0.016112  0.004772
  1C   1dyz       0.000164  0.009012 -0.000994 -0.001459 -0.024212 -0.005660
  1C   1dx2y2    -0.001136 -0.001141 -0.003867 -0.011910  0.003889 -0.030458
  1C   1dxy      -0.002291 -0.001127  0.004905  0.018461 -0.001637 -0.038786
  2H   1s        -0.003549  0.190500  0.101984 -0.123192  0.140048  0.021554
  2H   2s        -0.003590  0.146112  0.069169 -0.107973  0.111067  0.055946
  3H   1s        -0.173560 -0.000098 -0.016312  0.239559 -0.000054  0.038101
  3H   2s        -0.120301 -0.000217 -0.021108  0.209994 -0.000139  0.107502
  4H   1s        -0.003493 -0.190523  0.101873 -0.123251 -0.140020  0.021526
  4H   2s        -0.003621 -0.145996  0.069113 -0.108051 -0.111041  0.055838
  5O   1s         0.051478 -0.000019  0.062476  0.026028  0.000001  0.000545
  5O   2s        -0.117782  0.000036 -0.135370 -0.056462  0.000010 -0.006188
  5O   1pz        0.009961  0.212791  0.058772  0.026355 -0.465796 -0.042312
  5O   1px       -0.280348 -0.005451  0.011271 -0.175252  0.011875 -0.537854
  5O   1py       -0.121006  0.030228 -0.412807 -0.217786 -0.065917  0.202083
  5O   3s        -0.187855  0.000079 -0.269865 -0.101416 -0.000051  0.026178
  5O   2pz        0.004838  0.122712  0.030897  0.015395 -0.297346 -0.029475
  5O   2px       -0.153406 -0.003141  0.014778 -0.099683  0.007541 -0.387594
  5O   2py       -0.061966  0.017411 -0.215418 -0.126879 -0.042045  0.138501
  5O   1dz2      -0.006544  0.003232 -0.008626 -0.005163 -0.006086 -0.000785
  5O   1dxz      -0.002188 -0.006622 -0.000174 -0.001486  0.009946 -0.001555
  5O   1dyz      -0.000458 -0.014104 -0.004636 -0.001417  0.026112  0.001925
  5O   1dx2y2     0.004770  0.002200 -0.017301 -0.003020 -0.004010  0.012237
  5O   1dxy       0.018387 -0.000563  0.000901  0.011597  0.000721  0.013409
  6H   1s        -0.122659 -0.000006  0.020438 -0.120952 -0.000041  0.178702
  6H   2s        -0.107663  0.000060  0.002153 -0.112459 -0.000091  0.276941
                     12        13        14        15        16        17
                  -0.02379   0.11232   0.12052   0.17216   0.17609   0.25840
                   0.00000   0.00000   0.00000   0.00000   0.00000   0.00000
                  --------  --------  --------  --------  --------  --------
  0C   1s        -0.000002 -0.105075 -0.102394  0.000326  0.042865  0.063257
  0C   2s        -0.000106  0.116023  0.117552 -0.000030 -0.049639 -0.016254
  0C   1pz       -0.005470  0.016465 -0.028914 -0.429013 -0.043217 -0.004271
  0C   1px        0.000164 -0.192103 -0.041367  0.009978 -0.154821 -0.146776
  0C   1py       -0.000741 -0.152088  0.197115 -0.058734  0.299999  0.003575
  0C   3s         0.000244  1.812297  1.652624 -0.005361 -0.618016 -1.543844
  0C   2pz        0.158107  0.028245 -0.088200 -1.363304 -0.165188  0.009279
  0C   2px       -0.003782 -0.583054 -0.042514  0.030331 -0.690320 -1.564993
  0C   2py        0.022144 -0.305965  0.612888 -0.185792  1.104076 -0.350102
  0C   1dz2       0.002479 -0.000799 -0.007699 -0.003732 -0.016352 -0.014905
  0C   1dxz       0.031924  0.000642 -0.000970 -0.000478 -0.000418  0.001516
  0C   1dyz      -0.004206  0.001665 -0.003374  0.014477 -0.003234  0.001670
  0C   1dx2y2    -0.000189  0.013246 -0.011453 -0.002044  0.004843  0.037305
  0C   1dxy       0.004635 -0.001872  0.007285 -0.000395  0.009146  0.000668
  1C   1s         0.000016 -0.048853  0.079038 -0.000616 -0.092007 -0.029876
  1C   2s         0.000150  0.120710 -0.071640  0.001093  0.157095  0.078235
  1C   1pz        0.496302  0.024033 -0.028506  0.128164  0.019226 -0.010741
  1C   1px       -0.012595  0.090212 -0.080252 -0.003193  0.009568 -0.464428
  1C   1py        0.070144 -0.152709  0.187343  0.017150 -0.138847 -0.008227
  1C   3s        -0.000761  0.606618 -1.358411  0.009508  1.386290  0.373353
  1C   2pz        0.526333  0.060275 -0.052598  0.400089  0.076087  0.069098
  1C   2px       -0.013530  0.239033 -0.012687 -0.009988  0.060428 -1.899211
  1C   2py        0.074661 -0.383193  0.370466  0.053684 -0.545323 -0.829592
  1C   1dz2       0.006968 -0.001911 -0.010041 -0.000001  0.004107 -0.000440
  1C   1dxz      -0.007219 -0.000026  0.002470  0.012894  0.003156 -0.001054
  1C   1dyz      -0.029147 -0.000753 -0.001174  0.002439  0.002168 -0.001319
  1C   1dx2y2     0.004382 -0.001981  0.011462 -0.000579  0.012087 -0.009383
  1C   1dxy      -0.000261  0.000484 -0.012285  0.001630 -0.022159  0.005821
  2H   1s        -0.098605 -0.016147 -0.045900  0.074851 -0.057127 -0.021815
  2H   2s        -0.332326 -0.760523 -1.049403  1.490219 -0.679549 -0.066388
  3H   1s        -0.000012 -0.059809  0.052423  0.000625  0.085555 -0.126622
  3H   2s        -0.000064 -1.333068  0.212687  0.009932  1.581104 -0.182644
  4H   1s         0.098568 -0.016079 -0.046066 -0.075423 -0.056483 -0.021897
  4H   2s         0.332482 -0.760785 -1.050424 -1.497498 -0.660962 -0.066771
  5O   1s        -0.000007 -0.007639 -0.004557  0.000138  0.017846 -0.050836
  5O   2s        -0.000001  0.021304  0.006024 -0.000427 -0.062947  0.076345
  5O   1pz       -0.411566 -0.009248  0.005576 -0.126290 -0.011709  0.018365
  5O   1px        0.010488 -0.091148  0.022400  0.003688  0.064554  0.107864
  5O   1py       -0.058224  0.048732 -0.035407 -0.017181  0.099639 -0.110642
  5O   3s         0.000137  0.088041  0.079162 -0.000814 -0.040139  1.016923
  5O   2pz       -0.432108 -0.008198  0.014290 -0.150466 -0.015163  0.075335
  5O   2px        0.011023 -0.134507  0.038732  0.004093  0.023710  0.193588
  5O   2py       -0.061235  0.033511 -0.094572 -0.020314  0.118207 -0.497804
  5O   1dz2       0.000297 -0.000061 -0.007915  0.000287 -0.000073 -0.007467
  5O   1dxz       0.000960 -0.000697  0.000016 -0.001755 -0.000183 -0.003023
  5O   1dyz      -0.001041 -0.000580 -0.001456 -0.001425  0.000041 -0.003327
  5O   1dx2y2     0.000119 -0.004637  0.003090  0.000250  0.000122 -0.014074
  5O   1dxy       0.000160  0.004090  0.002956 -0.000213  0.001414  0.021159
  6H   1s         0.000070 -0.007449  0.099988 -0.000152 -0.029372  0.003880
  6H   2s         0.000328 -0.865655  1.177088 -0.007105 -1.135239  0.747862
                     18        19        20        21        22        23
                   0.27212   0.52588   0.53847   0.57689   0.60685   0.67169
                   0.00000   0.00000   0.00000   0.00000   0.00000   0.00000
                  --------  --------  --------  --------  --------  --------
  0C   1s        -0.035354  0.000074 -0.018930  0.016724 -0.000031 -0.018499
  0C   2s         0.036638 -0.001791  0.229409 -0.115090  0.001467  0.161534
  0C   1pz       -0.015478 -0.349227  0.045534  0.089147  0.686293 -0.015712
  0C   1px        0.133105  0.003683  0.909405 -0.341768 -0.017535  0.211754
  0C   1py        0.132437 -0.047370 -0.161831 -0.665487  0.100956  0.149297
  0C   3s         0.286901  0.000486  0.055567 -0.170329 -0.002501 -1.194301
  0C   2pz       -0.116120  0.631846 -0.100582 -0.209319 -1.763334  0.068839
  0C   2px        0.635910 -0.009918 -1.123532  0.353019  0.045373 -0.973974
  0C   2py        0.934575  0.083448  0.508675  1.476797 -0.260163 -0.662494
  0C   1dz2       0.014118  0.015111 -0.054430 -0.070488 -0.022808  0.046866
  0C   1dxz       0.005009  0.021693 -0.000588 -0.001640 -0.048769 -0.008048
  0C   1dyz       0.000965 -0.055240 -0.012961 -0.026548  0.085430  0.001620
  0C   1dx2y2    -0.010104  0.007406  0.001597 -0.069161 -0.010576 -0.075583
  0C   1dxy      -0.041781  0.004466  0.022189  0.019934 -0.009348  0.028261
  1C   1s         0.070266 -0.000284  0.046806 -0.013924 -0.000031 -0.041827
  1C   2s        -0.035563 -0.000260  0.202662  0.135679 -0.000192  0.157461
  1C   1pz        0.035072 -0.887840  0.011593  0.014527 -0.497294 -0.068942
  1C   1px        0.277851  0.023693 -0.033811  0.014312  0.013197  0.792410
  1C   1py       -0.198706 -0.125273 -0.133043 -0.122851 -0.069983  0.634659
  1C   3s        -1.951328 -0.000158 -0.147935 -0.970777  0.004793  1.004907
  1C   2pz        0.275063  0.847590  0.030799  0.073121  1.142108 -0.033599
  1C   2px        0.170137 -0.025116  0.232805 -0.413325 -0.029656 -1.935919
  1C   2py       -1.912781  0.123753 -0.122725 -0.543708  0.167343 -0.116855
  1C   1dz2      -0.012712  0.005568 -0.101121  0.015685  0.004098  0.033370
  1C   1dxz       0.000881  0.000837  0.004621  0.006918  0.029006  0.010625
  1C   1dyz      -0.003527 -0.019758 -0.014252 -0.000828 -0.010530  0.020567
  1C   1dx2y2    -0.001905  0.002453  0.075093 -0.021990  0.000765  0.097323
  1C   1dxy      -0.002576  0.000509  0.013071 -0.056970  0.004792 -0.068557
  2H   1s         0.085310 -0.244137 -0.174214 -0.118891  0.334138 -0.078956
  2H   2s        -0.129452 -0.143117 -0.118824 -0.065423  0.350031  0.033983
  3H   1s        -0.037568 -0.000961  0.120944  0.463001 -0.003066 -0.020353
  3H   2s         0.711087 -0.001891  0.102719  0.360725 -0.002468 -0.485885
  4H   1s         0.085329  0.245884 -0.172869 -0.122560 -0.331281 -0.079422
  4H   2s        -0.130210  0.144574 -0.118606 -0.069036 -0.347331  0.034439
  5O   1s        -0.090321  0.000148 -0.019136 -0.011646  0.000122  0.038954
  5O   2s         0.118070 -0.000483  0.075178 -0.061930  0.000196 -0.139891
  5O   1pz        0.016676 -0.032707  0.001807  0.012950 -0.113396 -0.025343
  5O   1px       -0.104492  0.001305 -0.060309  0.300836  0.001256  0.228684
  5O   1py       -0.136730 -0.004440 -0.026440 -0.042009 -0.015812  0.220152
  5O   3s         1.886836 -0.001836  0.132746  0.740649 -0.005107  0.003339
  5O   2pz        0.088425 -0.069837  0.008140  0.040029 -0.131524 -0.030808
  5O   2px       -0.469111  0.003143 -0.149336 -0.125666  0.005009  0.296382
  5O   2py       -0.709904 -0.009182 -0.089754 -0.310921 -0.016577  0.272421
  5O   1dz2      -0.025382 -0.013449 -0.012803 -0.024106 -0.004279 -0.047903
  5O   1dxz      -0.002102  0.016854  0.002945 -0.001875  0.034239 -0.006816
  5O   1dyz      -0.010243  0.057094 -0.002049 -0.003355  0.024094 -0.025982
  5O   1dx2y2    -0.030287 -0.008776  0.007673  0.012762 -0.004468 -0.105038
  5O   1dxy       0.017499  0.000902 -0.014223  0.024514  0.004035  0.044655
  6H   1s         0.058090 -0.001083  0.256287  0.244256 -0.001878  0.139225
  6H   2s        -0.834264  0.002941 -0.153872 -0.032816  0.002932  0.486224
                     24        25        26        27        28        29
                   0.72265   0.79002   0.85407   0.85695   0.87283   0.93890
                   0.00000   0.00000   0.00000   0.00000   0.00000   0.00000
                  --------  --------  --------  --------  --------  --------
  0C   1s        -0.025643  0.027743 -0.000026 -0.030218 -0.015697 -0.045776
  0C   2s         0.132440  0.057540  0.001533  0.014030 -0.071939  0.788135
  0C   1pz       -0.027246 -0.094320  0.814728 -0.002224 -0.064999  0.034954
  0C   1px        0.007991 -0.173196 -0.020948 -0.050930 -0.067633 -0.258171
  0C   1py        0.193028  0.635852  0.114764 -0.004296  0.456632 -0.296271
  0C   3s        -1.026072 -0.093699 -0.004263 -0.160308  0.260895 -1.098118
  0C   2pz        0.117891  0.264741 -1.225159 -0.059468  0.055899  0.007204
  0C   2px       -0.890664  0.784554  0.030509 -0.315167 -0.008954  0.761540
  0C   2py       -0.991298 -1.730917 -0.172742  0.377689 -0.413240  0.090228
  0C   1dz2       0.030612  0.014056  0.035960  0.001949 -0.106867  0.075032
  0C   1dxz       0.000878 -0.017477  0.164492 -0.000884 -0.004074 -0.010673
  0C   1dyz       0.002981  0.001687 -0.113822 -0.005586 -0.037862  0.037914
  0C   1dx2y2    -0.028586 -0.033555  0.012275 -0.043798 -0.086381  0.120526
  0C   1dxy      -0.021258  0.112498  0.026260 -0.004852  0.048686  0.072417
  1C   1s         0.035194  0.028846  0.000118  0.041607 -0.026836 -0.001533
  1C   2s        -0.683564  0.533106 -0.002172 -1.336409 -0.593636  0.130106
  1C   1pz        0.111507  0.023457  0.048555 -0.086670  0.010064  0.012870
  1C   1px        0.521414 -0.176169 -0.001685 -0.279496 -0.044079 -0.080116
  1C   1py       -0.688896 -0.192948  0.008108  0.556760 -0.080483 -0.104353
  1C   3s         1.440811 -1.018606  0.007151  2.882739 -0.100702 -1.081347
  1C   2pz       -0.267200 -0.194638 -0.053227  0.198500  0.114395 -0.046928
  1C   2px       -1.939765 -0.111042  0.001655  0.715939  0.131625  0.292156
  1C   2py        1.531800  1.351435 -0.008729 -1.267072 -0.782036  0.384285
  1C   1dz2      -0.040417 -0.095082 -0.004154 -0.050599  0.098897 -0.011030
  1C   1dxz      -0.012959  0.021646 -0.105770  0.007231  0.007889  0.015381
  1C   1dyz      -0.016853 -0.030261 -0.003549 -0.023801  0.037597  0.010205
  1C   1dx2y2    -0.063999 -0.022127  0.002920 -0.068341  0.102228  0.105418
  1C   1dxy       0.093137 -0.126196 -0.014890 -0.045004 -0.069789 -0.086017
  2H   1s        -0.191378  0.095296 -0.705338 -0.242116 -0.390369 -0.169815
  2H   2s         0.012442  0.683326  1.405430 -0.023068  0.435306  0.475754
  3H   1s        -0.165740  0.361729 -0.000671 -0.113579  0.475923 -0.852476
  3H   2s        -0.431660 -1.131354  0.001467  0.198124 -0.951812  1.155106
  4H   1s        -0.191729  0.094742  0.705145 -0.245377 -0.389100 -0.169995
  4H   2s         0.013093  0.684251 -1.404499 -0.017221  0.431927  0.476352
  5O   1s        -0.005999 -0.010281  0.000070  0.005499 -0.054342 -0.023029
  5O   2s         0.061319  0.146268 -0.000217 -0.035235  0.226273  0.133212
  5O   1pz        0.054034  0.014389 -0.076764  0.032604 -0.067797 -0.043175
  5O   1px        0.056137  0.039615  0.002026 -0.004130  0.076730  0.226297
  5O   1py       -0.371900 -0.091377 -0.011994 -0.234645  0.491003  0.350075
  5O   3s        -0.690079 -0.512483 -0.001390 -0.134443  0.584847  0.031231
  5O   2pz       -0.007030  0.001957  0.121699 -0.058223  0.134515  0.081145
  5O   2px        0.256062  0.130361 -0.002665 -0.034628 -0.427628 -0.349450
  5O   2py        0.097176  0.006767  0.019388  0.407667 -1.025886 -0.641651
  5O   1dz2       0.082395  0.004399 -0.003044  0.036087 -0.009223 -0.019856
  5O   1dxz       0.012909 -0.002504 -0.014344 -0.002352 -0.001259 -0.000507
  5O   1dyz       0.023079  0.004435  0.010133  0.019812 -0.006793 -0.005227
  5O   1dx2y2     0.037808  0.019867 -0.000938  0.071247 -0.032404 -0.003239
  5O   1dxy      -0.110768  0.019682 -0.002273  0.018266  0.006237  0.009290
  6H   1s        -0.069488  0.795736  0.001811  0.576576 -0.306529  0.336990
  6H   2s         1.218651  0.164744 -0.003874 -2.120261 -0.190750 -0.054347
                     30        31        32        33        34        35
                   0.94445   0.99541   1.08768   1.23517   1.39724   1.51827
                   0.00000   0.00000   0.00000   0.00000   0.00000   0.00000
                  --------  --------  --------  --------  --------  --------
  0C   1s         0.036210 -0.000003  0.000971  0.110267 -0.000037 -0.000003
  0C   2s        -1.009764 -0.001068 -0.109789  2.089022 -0.000601 -0.000203
  0C   1pz        0.036269  0.130797 -0.027053  0.007373 -0.124856 -0.014784
  0C   1px        0.383450 -0.003011  0.012876  0.099355  0.003115  0.000332
  0C   1py       -0.185748  0.018443  0.193895 -0.039371 -0.017607 -0.002108
  0C   3s         1.642383  0.001802  1.311932 -6.215269  0.001898  0.000456
  0C   2pz       -0.006375 -0.539202  0.027904 -0.002662 -0.045579 -0.116676
  0C   2px       -0.831154  0.012518  0.602707 -1.130269  0.001635  0.003054
  0C   2py       -0.107233 -0.075621 -0.089991 -0.172595 -0.006624 -0.016335
  0C   1dz2       0.150342  0.001611 -0.039890  0.048191 -0.085555  0.021639
  0C   1dxz      -0.007136  0.032743  0.003108  0.001084  0.425109  0.075754
  0C   1dyz       0.033003 -0.000528 -0.002653  0.005234  0.419990 -0.072776
  0C   1dx2y2    -0.030852 -0.000835  0.050656 -0.041503 -0.071004  0.008624
  0C   1dxy      -0.002740  0.004553 -0.000639 -0.029379  0.049166  0.012740
  1C   1s        -0.021361 -0.000002  0.007231 -0.038733  0.000019 -0.000001
  1C   2s        -0.678422 -0.001337  0.164168 -0.643898  0.000177  0.000052
  1C   1pz        0.011169 -0.109666 -0.022886 -0.008722 -0.019049  0.190036
  1C   1px        0.032108  0.002851 -0.281144 -0.028930  0.000471 -0.004840
  1C   1py       -0.072966 -0.015109  0.110519  0.055590 -0.002711  0.026832
  1C   3s         0.796114  0.002780 -0.556088  3.420566 -0.000932 -0.000516
  1C   2pz       -0.044313  0.671980  0.121200 -0.026047 -0.005252 -0.112283
  1C   2px       -0.500423 -0.017033  1.924608 -1.669787  0.000745  0.002899
  1C   2py        0.221834  0.093704 -0.508640 -0.117858 -0.000438 -0.016149
  1C   1dz2       0.068082 -0.003679 -0.007358  0.111820 -0.033733  0.169042
  1C   1dxz       0.008344  0.037349 -0.013983 -0.018601 -0.606561  0.069167
  1C   1dyz       0.016212  0.021863  0.016078  0.030630  0.025544 -0.663673
  1C   1dx2y2     0.009023 -0.004182  0.102367  0.001767  0.011498  0.094084
  1C   1dxy      -0.079034  0.004751  0.119503  0.094896 -0.086588  0.027358
  2H   1s         0.552941 -0.036105  0.010916  0.489455  0.139140  0.064695
  2H   2s        -1.066146  0.317163  0.086082  0.608109 -0.093032  0.082454
  3H   1s        -0.051850  0.000253  0.042832  0.463541 -0.000250  0.000002
  3H   2s        -0.335190 -0.000566 -0.228943  0.788455 -0.000302 -0.000022
  4H   1s         0.553240  0.036179  0.010724  0.489094 -0.139414 -0.064750
  4H   2s        -1.066808 -0.319078  0.086286  0.610226  0.092821 -0.082597
  5O   1s        -0.020474  0.000004 -0.001317 -0.005596 -0.000004  0.000002
  5O   2s         0.108947 -0.000040  0.026369  0.185816  0.000101 -0.000180
  5O   1pz       -0.032280  0.927735  0.060776 -0.000568  0.054612  0.118931
  5O   1px        0.234542 -0.023565  0.771098  0.019527 -0.001384 -0.003062
  5O   1py        0.267222  0.131106 -0.291340  0.008583  0.007708  0.016820
  5O   3s        -0.109708  0.000038 -0.017580 -0.586470 -0.000198  0.000522
  5O   2pz        0.076555 -1.282451 -0.115925 -0.007583  0.023808  0.113550
  5O   2px       -0.197718  0.032561 -1.460512  0.253224 -0.000704 -0.002937
  5O   2py       -0.572693 -0.181134  0.556834  0.098750  0.003427  0.015911
  5O   1dz2       0.028605  0.009268 -0.014975  0.168609 -0.056176 -0.077707
  5O   1dxz      -0.001816 -0.002721  0.010528 -0.010725 -0.159331  0.352720
  5O   1dyz       0.011570 -0.037337 -0.017977  0.035658  0.195641  0.373745
  5O   1dx2y2     0.028877  0.005491 -0.083200 -0.048380 -0.024241 -0.062689
  5O   1dxy       0.008917  0.000610 -0.084122  0.013274 -0.027808  0.039988
  6H   1s         0.245013 -0.000090 -0.164948 -0.035230  0.000079 -0.000081
  6H   2s        -0.082962 -0.001215 -0.698335  0.050246  0.000007  0.000001
                     36        37        38        39        40        41
                   1.58269   1.71041   1.80001   1.80194   1.84603   2.03905
                   0.00000   0.00000   0.00000   0.00000   0.00000   0.00000
                  --------  --------  --------  --------  --------  --------
  0C   1s         0.014830 -0.048790  0.002408 -0.000005  0.043501  0.010305
  0C   2s         0.237011 -0.251645 -0.521771  0.000436  0.119105 -0.126083
  0C   1pz       -0.013015 -0.013147  0.008309  0.056140 -0.009847  0.011530
  0C   1px        0.017358  0.122710 -0.216286 -0.001209 -0.164460 -0.050543
  0C   1py        0.095230  0.115269 -0.097108  0.008082  0.039679 -0.090466
  0C   3s        -0.714160  1.686801  0.613011 -0.000394 -1.411996  0.073504
  0C   2pz        0.017469  0.052235 -0.037137 -0.313511  0.100124  0.025530
  0C   2px       -0.091248  0.484398  0.189386  0.007782 -0.281765  0.231887
  0C   2py       -0.140973 -0.282911  0.295006 -0.044849 -0.757583 -0.140519
  0C   1dz2      -0.225242 -0.146502 -0.028385  0.065186 -0.365297 -0.498493
  0C   1dxz       0.042534  0.089031 -0.014068 -0.372615  0.093087 -0.012264
  0C   1dyz      -0.059038 -0.058386  0.028895 -0.328736 -0.057039 -0.101079
  0C   1dx2y2     0.021386 -0.043898  0.225965  0.056361  0.325318  0.113225
  0C   1dxy      -0.224827 -0.589974  0.144780 -0.044365 -0.483339  0.265332
  1C   1s        -0.018537  0.017203  0.023598 -0.000027 -0.020728 -0.009165
  1C   2s        -0.073394  0.516127 -0.055532 -0.000007 -0.394843 -0.309847
  1C   1pz        0.006841 -0.001724 -0.013305  0.057666 -0.016441  0.006499
  1C   1px       -0.051310 -0.025294 -0.051730 -0.001413  0.229589  0.270317
  1C   1py       -0.057436  0.008548  0.085720  0.008122  0.157718  0.002399
  1C   3s        -1.673224 -1.179075 -0.645534  0.001056  2.171344  0.689375
  1C   2pz        0.170842 -0.130690 -0.020486  0.204286 -0.242936 -0.002684
  1C   2px       -0.678523  0.778277 -0.526987 -0.004580 -1.015817  0.238709
  1C   2py       -1.330134  1.063360  0.050491  0.029113  1.533843  0.063117
  1C   1dz2      -0.039050  0.230578  0.148311  0.021675 -0.314614 -0.560998
  1C   1dxz       0.022818 -0.042073 -0.048954 -0.104114 -0.029704  0.059934
  1C   1dyz       0.012472  0.012713  0.090014 -0.106249 -0.064788 -0.137662
  1C   1dx2y2     0.175589 -0.341204  0.303155  0.017540  0.037942  0.061763
  1C   1dxy      -0.118418  0.163226  0.351401 -0.012275  0.316624 -0.234050
  2H   1s         0.083637 -0.201295 -0.009216  0.040686  0.208249  0.271737
  2H   2s         0.186003 -0.015541 -0.189022  0.102985  0.094922 -0.042784
  3H   1s         0.054336 -0.172955  0.104162 -0.000115  0.155143 -0.186354
  3H   2s        -0.151792 -0.214357  0.025002 -0.000233 -0.182290  0.000657
  4H   1s         0.083584 -0.201326 -0.009173 -0.040680  0.208219  0.271695
  4H   2s         0.185951 -0.015617 -0.189317 -0.102584  0.095231 -0.042910
  5O   1s         0.039461  0.010290 -0.003359  0.000007  0.010266  0.001419
  5O   2s        -1.586531  0.143583 -0.062095  0.000172  0.526761  0.160325
  5O   1pz       -0.021914 -0.014969 -0.012385  0.057943 -0.029999  0.001273
  5O   1px        0.055791  0.140476 -0.254785 -0.001204 -0.034246  0.066932
  5O   1py        0.165208  0.131017  0.042128  0.008187  0.205940  0.003199
  5O   3s         3.483235 -0.831865  0.351458 -0.000833 -2.133269 -0.556600
  5O   2pz        0.155977 -0.023151  0.038942 -0.094649 -0.046428 -0.033494
  5O   2px       -0.425334 -0.091685  0.328709  0.002131  0.558126 -0.058930
  5O   2py       -1.179648  0.147725 -0.216679 -0.013028  0.428819  0.225795
  5O   1dz2       0.072290  0.402854  0.386825 -0.138765 -0.404298  0.423394
  5O   1dxz       0.017817 -0.066343  0.004495 -0.720433  0.041100 -0.075714
  5O   1dyz       0.033384  0.095144  0.018767  0.422903 -0.091644  0.103651
  5O   1dx2y2     0.129364 -0.099432 -0.498584 -0.042442  0.092686 -0.086541
  5O   1dxy      -0.126131  0.323676 -0.248560 -0.113051 -0.144325  0.384313
  6H   1s         0.075128  0.297424  0.548688 -0.000555  0.287312 -0.442090
  6H   2s        -0.062395  0.284085  0.093493 -0.000120  0.437831 -0.073716
                     42        43        44        45        46        47
                   2.13550   2.20777   2.23185   2.33486   2.53528   2.60137
                   0.00000   0.00000   0.00000   0.00000   0.00000   0.00000
                  --------  --------  --------  --------  --------  --------
  0C   1s         0.000006  0.014527 -0.000021  0.029140  0.046516  0.000016
  0C   2s         0.000204  0.139572 -0.000065  0.249744  0.078081 -0.000002
  0C   1pz        0.064925  0.016962  0.103524 -0.003896  0.005189 -0.005818
  0C   1px       -0.001626 -0.038095 -0.002508 -0.075761 -0.266081  0.000046
  0C   1py        0.009178 -0.125816  0.014720  0.014247 -0.084697 -0.000843
  0C   3s        -0.000382 -0.760801  0.000890 -1.203933 -1.396617 -0.000488
  0C   2pz        0.638916  0.101344  0.213177 -0.022456  0.000146 -0.133403
  0C   2px       -0.016173 -0.375681 -0.004794 -0.673158 -0.825762  0.003067
  0C   2py        0.090752 -0.782187  0.031043  0.039754 -0.148788 -0.018809
  0C   1dz2      -0.177957 -0.476134 -0.154686  0.467318  0.487947  0.058831
  0C   1dxz       0.090872 -0.001179 -0.844926 -0.021868  0.066795  0.338366
  0C   1dyz       0.730389 -0.240464  0.468625  0.084076  0.068676 -0.173690
  0C   1dx2y2    -0.106964 -0.852939 -0.045200 -0.222029 -0.245954  0.016520
  0C   1dxy      -0.006454  0.003270 -0.131893 -0.037101 -0.671682  0.052259
  1C   1s         0.000011 -0.019915  0.000063 -0.077565 -0.034042 -0.000011
  1C   2s         0.000103  0.011223  0.000043 -0.252944 -0.030457 -0.000025
  1C   1pz        0.016358  0.004888  0.144527 -0.013376  0.005575  0.221382
  1C   1px       -0.000273 -0.244997 -0.003299 -0.187961 -0.231352 -0.005695
  1C   1py        0.002289 -0.077328  0.020486  0.061037 -0.081832  0.031374
  1C   3s        -0.000453  0.870060 -0.001331  1.326890  1.535301  0.000695
  1C   2pz       -0.348723 -0.117808  0.107685 -0.025229 -0.032702  0.289009
  1C   2px        0.008950 -0.647807 -0.001791 -0.589512 -1.008248 -0.007736
  1C   2py       -0.049561  0.716242  0.014292  0.072422  0.048870  0.040721
  1C   1dz2       0.068315  0.002703 -0.076153 -0.719395 -0.354645 -0.192267
  1C   1dxz       0.688184  0.012447 -0.271451 -0.022221  0.100475  0.422038
  1C   1dyz      -0.148958 -0.003545  0.257269 -0.243398  0.002297  0.843966
  1C   1dx2y2     0.004381 -0.014321 -0.030026 -0.495603  0.719810 -0.132043
  1C   1dxy       0.101398 -0.090937 -0.045368  0.297655 -0.470959  0.037185
  2H   1s        -0.387557  0.274572 -0.537430 -0.104986 -0.159889  0.187271
  2H   2s        -0.100884  0.014174  0.118940  0.017661  0.036402 -0.044390
  3H   1s         0.000360 -0.742816  0.000776  0.177466  0.194412  0.000136
  3H   2s         0.000302 -0.003827  0.000150  0.064106 -0.061528 -0.000045
  4H   1s         0.387356  0.276139  0.537002 -0.104257 -0.159775 -0.187416
  4H   2s         0.100971  0.013934 -0.118941  0.017601  0.036496  0.044372
  5O   1s        -0.000001 -0.003208 -0.000017  0.033428 -0.017370 -0.000004
  5O   2s        -0.000080  0.223081  0.000034 -0.479230  0.479054  0.000172
  5O   1pz       -0.040922  0.003326  0.050295 -0.062995  0.036097 -0.011637
  5O   1px        0.001076 -0.072337 -0.001271  0.141714 -0.152936  0.000242
  5O   1py       -0.005819 -0.036161  0.006862  0.471133 -0.282637 -0.001745
  5O   3s         0.000350 -0.688050  0.000778 -0.050965 -0.543248 -0.000183
  5O   2pz        0.116078 -0.004295 -0.195413  0.039487 -0.024579 -0.447517
  5O   2px       -0.003104  0.347092  0.004493  0.162442  0.353193  0.011561
  5O   2py        0.016367  0.091373 -0.027578 -0.250744  0.238415 -0.063165
  5O   1dz2      -0.045426 -0.115351 -0.054695  0.034012  0.171736 -0.207238
  5O   1dxz      -0.378766  0.047408  0.364594  0.012752 -0.002178  0.305084
  5O   1dyz       0.113668 -0.081605  0.284711 -0.046854  0.019186  0.883869
  5O   1dx2y2    -0.006723 -0.304600 -0.049585 -0.355060 -0.150022 -0.135148
  5O   1dxy      -0.056458 -0.349631  0.044574 -0.162352 -0.066351  0.019687
  6H   1s        -0.000066  0.104923 -0.000090 -0.127474 -0.286250 -0.000149
  6H   2s         0.000046  0.298414 -0.000413  0.061877  0.285819  0.000024
                     48        49
                   2.85044   2.94763
                   0.00000   0.00000
                  --------  --------
  0C   1s         0.031859 -0.008861
  0C   2s        -0.079909  0.067356
  0C   1pz       -0.005397 -0.002471
  0C   1px       -0.260318  0.093384
  0C   1py       -0.008764  0.034379
  0C   3s        -0.287231  0.065161
  0C   2pz       -0.001437 -0.006296
  0C   2px       -0.273595  0.103670
  0C   2py       -0.039632  0.062918
  0C   1dz2       0.181160 -0.042610
  0C   1dxz      -0.031128  0.010822
  0C   1dyz      -0.035550  0.016909
  0C   1dx2y2    -0.572322  0.196555
  0C   1dxy       0.061169 -0.028060
  1C   1s        -0.041549 -0.031287
  1C   2s        -0.310368 -1.334787
  1C   1pz        0.042433  0.156781
  1C   1px       -0.174373 -0.448765
  1C   1py       -0.331424 -1.189132
  1C   3s         0.225343 -1.693599
  1C   2pz        0.077119  0.111444
  1C   2px        0.027167 -0.237922
  1C   2py       -0.539875 -0.830719
  1C   1dz2      -0.099718  0.425587
  1C   1dxz      -0.090968  0.071686
  1C   1dyz       0.107599  0.132577
  1C   1dx2y2     0.769571  0.289386
  1C   1dxy       0.809815 -0.590476
  2H   1s        -0.004016  0.002227
  2H   2s        -0.002261  0.053570
  3H   1s        -0.175605  0.081369
  3H   2s         0.030110 -0.071641
  4H   1s        -0.004016  0.002199
  4H   2s        -0.002304  0.053552
  5O   1s        -0.009245 -0.061400
  5O   2s        -0.289454 -0.688576
  5O   1pz       -0.004483  0.037308
  5O   1px       -0.039589 -0.091433
  5O   1py        0.024624 -0.280213
  5O   3s         0.863382  3.093112
  5O   2pz        0.027296  0.223520
  5O   2px       -0.531710 -0.596488
  5O   2py       -0.289134 -1.687828
  5O   1dz2      -0.166464 -0.686739
  5O   1dxz      -0.096730 -0.093881
  5O   1dyz       0.027278 -0.297575
  5O   1dx2y2     0.331330 -1.001835
  5O   1dxy       0.794394  0.704610
  6H   1s         0.268247 -0.020567
  6H   2s        -0.396623  0.016251

MULLIKEN ATOMIC CHARGES
-----------------------
   0 C :   -0.514512
   1 C :    0.228764
   2 H :    0.188839
   3 H :    0.154958
   4 H :    0.188736
   5 O :   -0.353127
   6 H :    0.106341
Sum of atomic charges:   -0.0000000

LOEWDIN ATOMIC CHARGES
----------------------
   0 C :   -0.409444
   1 C :    0.059148
   2 H :    0.156773
   3 H :    0.134830
   4 H :    0.156765
   5 O :   -0.187315
   6 H :    0.089242

  Mayer bond orders larger than 0.1
B(  0-C ,  1-C ) :   0.9578 B(  0-C ,  2-H ) :   0.9320 B(  0-C ,  3-H ) :   0.9398
B(  0-C ,  4-H ) :   0.9321 B(  1-C ,  5-O ) :   2.0150 B(  1-C ,  6-H ) :   0.8924

FINAL SINGLE POINT ENERGY      -153.736864772332

DIPOLE MOMENT
-------------
                                X             Y             Z
Electronic contribution:      2.65432       2.10866      -0.23066
Nuclear contribution   :     -3.21331      -2.92017       0.33104
                        -----------------------------------------
Total Dipole Moment    :     -0.55899      -0.81152       0.10038
                        -----------------------------------------
Magnitude (a.u.)       :      0.99051
Magnitude (Debye)      :      2.51767

Rotational constants in cm-1:     1.857192     0.337507     0.301638
Rotational constants in MHz : 55677.230337 10118.218559  9042.869690

                             ****ORCA TERMINATED NORMALLY****
TOTAL RUN TIME: 0 days 0 hours 0 minutes 54 seconds 638 msec
