                         Program Version 4.1.0  - RELEASE  -
|  1> ! B3LYP 6-31G* TIGHTSCF Grid3 FinalGrid5 Opt
|  2> !NormalPrint
|  3> %output
|  4> Print[P_Basis] 2
|  5> Print[P_MOS] 1
|  6> end
|  7> *xyzfile 0 1 /Users/lailaal-madhagi/Desktop/Testing_XAS_Analysis_code/Acetonitrile/Acetonitrile_geom.xyz                           ****END OF INPUT****
 Total Charge           Charge          ....    0
 Multiplicity           Mult            ....    1
 Number of Electrons    NEL             ....   22
FINAL SINGLE POINT ENERGY      -132.670026233459
FINAL SINGLE POINT ENERGY      -132.670516897873
FINAL SINGLE POINT ENERGY      -132.670532087810
FINAL SINGLE POINT ENERGY      -132.670538652750
                    ***********************HURRAY********************

CARTESIAN COORDINATES (ANGSTROEM)
---------------------------------
  C     -2.785551    0.499785    0.000005
  C     -1.323441    0.498817    0.000003
  H     -3.165729    0.482827    1.026647
  H     -3.166370   -0.380435   -0.528243
  H     -3.165224    1.397712   -0.498431
  N     -0.163076    0.497844    0.000039

 Multiplicity           Mult            ....    1
 Number of Electrons    NEL             ....   22
 Basis Dimension        Dim             ....   48

ORBITAL ENERGIES
----------------

  NO   OCC          E(Eh)            E(eV)
   0   2.0000     -14.328910      -389.9095
   1   2.0000     -10.229065      -278.3470
   2   2.0000     -10.224012      -278.2095
   3   2.0000      -0.898569       -24.4513
   4   2.0000      -0.772989       -21.0341
   5   2.0000      -0.513113       -13.9625
   6   2.0000      -0.461131       -12.5480
   7   2.0000      -0.461117       -12.5476
   8   2.0000      -0.354153        -9.6370
   9   2.0000      -0.322777        -8.7832
  10   2.0000      -0.322774        -8.7831
  11   0.0000       0.040144         1.0924
  12   0.0000       0.040149         1.0925
  13   0.0000       0.087105         2.3703
  14   0.0000       0.163526         4.4498
  15   0.0000       0.163575         4.4511

------------------
MOLECULAR ORBITALS
------------------
                      0         1         2         3         4         5
                 -14.32891 -10.22907 -10.22401  -0.89857  -0.77299  -0.51311
                   2.00000   2.00000   2.00000   2.00000   2.00000   2.00000
                  --------  --------  --------  --------  --------  --------
  0C   1s         0.000160 -0.995137  0.017735 -0.039638 -0.188261 -0.041138
  0C   2s         0.000560 -0.037675  0.003011  0.078016  0.364791  0.083395
  0C   1pz       -0.000000  0.000000 -0.000000 -0.000003 -0.000008 -0.000104
  0C   1px       -0.001154 -0.000733  0.001555  0.034324  0.039574 -0.400797
  0C   1py        0.000001  0.000000 -0.000001 -0.000024 -0.000025  0.000262
  0C   3s        -0.017698  0.035710 -0.018119  0.001937  0.351673  0.079207
  0C   2pz        0.000000 -0.000000  0.000000  0.000028  0.000037 -0.000156
  0C   2px       -0.006960  0.002968 -0.008531 -0.022048  0.010538 -0.176230
  0C   2py        0.000003 -0.000002  0.000005  0.000004 -0.000013  0.000119
  0C   1dz2       0.000290  0.000122 -0.000975 -0.002049  0.000643  0.012532
  0C   1dxz       0.000000  0.000000 -0.000000 -0.000001 -0.000000  0.000008
  0C   1dyz       0.000000  0.000000  0.000000  0.000000  0.000001  0.000000
  0C   1dx2y2    -0.000503 -0.000212  0.001689  0.003553 -0.001101 -0.021718
  0C   1dxy       0.000000  0.000000 -0.000002 -0.000005  0.000002  0.000027
  1C   1s        -0.000399 -0.017750 -0.994839 -0.157221 -0.040161  0.113537
  1C   2s        -0.000004  0.001122 -0.036592  0.286249  0.086908 -0.241769
  1C   1pz        0.000000 -0.000000 -0.000000  0.000002 -0.000010 -0.000010
  1C   1px        0.002641 -0.000697 -0.000978  0.181936 -0.231332  0.267976
  1C   1py       -0.000002  0.000000  0.000001 -0.000157  0.000170 -0.000198
  1C   3s        -0.014436 -0.008224  0.008462  0.118343  0.054583 -0.225916
  1C   2pz       -0.000001  0.000000 -0.000000  0.000010  0.000012 -0.000032
  1C   2px       -0.029872  0.007396 -0.023981 -0.092947 -0.005328  0.034353
  1C   2py        0.000023 -0.000005  0.000018  0.000071  0.000004 -0.000026
  1C   1dz2      -0.001143 -0.000828  0.001819 -0.011763 -0.004678  0.001427
  1C   1dxz       0.000000  0.000000 -0.000000  0.000005  0.000005 -0.000006
  1C   1dyz       0.000000  0.000000  0.000000  0.000000  0.000000  0.000000
  1C   1dx2y2     0.001980  0.001435 -0.003150  0.020374  0.008104 -0.002476
  1C   1dxy      -0.000003 -0.000002  0.000005 -0.000033 -0.000009  0.000002
  2H   1s         0.000313  0.000409  0.000741  0.019200  0.115362  0.119099
  2H   2s         0.000317 -0.005739 -0.000627 -0.001115  0.021760  0.070608
  3H   1s         0.000313  0.000408  0.000741  0.019202  0.115383  0.119243
  3H   2s         0.000317 -0.005739 -0.000627 -0.001083  0.021800  0.070487
  4H   1s         0.000313  0.000408  0.000741  0.019201  0.115384  0.119248
  4H   2s         0.000317 -0.005739 -0.000626 -0.001075  0.021811  0.070480
  5N   1s        -0.995472 -0.000002  0.000418 -0.174155  0.062804 -0.060669
  5N   2s        -0.034423 -0.000505 -0.000135  0.350115 -0.131253  0.130251
  5N   1pz        0.000000  0.000000 -0.000000 -0.000006  0.000003 -0.000015
  5N   1px        0.003709  0.000592 -0.002719 -0.195557  0.057592  0.023309
  5N   1py       -0.000003 -0.000001  0.000002  0.000163 -0.000053 -0.000011
  5N   3s         0.043751 -0.002643  0.022530  0.361447 -0.125031  0.178336
  5N   2pz       -0.000001 -0.000000 -0.000001 -0.000007 -0.000004  0.000003
  5N   2px       -0.013660  0.000191 -0.008982 -0.065999  0.010603  0.016677
  5N   2py        0.000012 -0.000001  0.000009  0.000057 -0.000011 -0.000010
  5N   1dz2       0.000430  0.000139 -0.000851 -0.008552  0.002827  0.001091
  5N   1dxz      -0.000000 -0.000000  0.000000  0.000002  0.000001 -0.000001
  5N   1dyz      -0.000000  0.000000 -0.000000 -0.000000 -0.000000 -0.000000
  5N   1dx2y2    -0.000745 -0.000240  0.001473  0.014812 -0.004896 -0.001889
  5N   1dxy       0.000001  0.000001 -0.000003 -0.000025  0.000009  0.000002
                      6         7         8         9        10        11
                  -0.46113  -0.46112  -0.35415  -0.32278  -0.32277   0.04014
                   2.00000   2.00000   2.00000   2.00000   2.00000   0.00000
                  --------  --------  --------  --------  --------  --------
  0C   1s        -0.000002  0.000009  0.013069 -0.000002  0.000004 -0.000120
  0C   2s        -0.000000 -0.000063 -0.019742  0.000008  0.000065  0.000040
  0C   1pz        0.019694 -0.437895 -0.000001  0.011763  0.140297  0.030300
  0C   1px       -0.000288  0.000094 -0.127193 -0.000080  0.000013 -0.000057
  0C   1py       -0.437813 -0.019695  0.000068 -0.140295  0.011759 -0.072647
  0C   3s         0.000004  0.000383 -0.190308  0.000022 -0.000274  0.002095
  0C   2pz        0.009253 -0.205180 -0.000023  0.006590  0.078597  0.156497
  0C   2px       -0.000158  0.000268 -0.133430 -0.000042 -0.000077 -0.000031
  0C   2py       -0.205418 -0.009249  0.000066 -0.078648  0.006604 -0.376133
  0C   1dz2       0.001624 -0.016992  0.001817  0.001018  0.007553 -0.004919
  0C   1dxz      -0.000295  0.006838  0.000002 -0.001521 -0.018212  0.015811
  0C   1dyz       0.019612  0.001870  0.000001  0.008719 -0.001163 -0.011937
  0C   1dx2y2     0.000945 -0.009787 -0.003146  0.000611  0.004354 -0.002889
  0C   1dxy       0.006840  0.000320  0.000005  0.018208 -0.001533 -0.038025
  1C   1s         0.000006 -0.000030 -0.063669 -0.000002 -0.000003  0.000047
  1C   2s        -0.000019  0.000143  0.122180  0.000008  0.000032 -0.000067
  1C   1pz        0.007695 -0.171118  0.000027 -0.031639 -0.377378  0.163638
  1C   1px       -0.000123 -0.000086  0.257323  0.000255 -0.000014 -0.000201
  1C   1py       -0.171105 -0.007700 -0.000155  0.377387 -0.031643 -0.393479
  1C   3s        -0.000003 -0.000028  0.065136  0.000035  0.000017 -0.000862
  1C   2pz        0.003177 -0.070531  0.000010 -0.018948 -0.225938  0.187187
  1C   2px       -0.000080  0.000488 -0.167178  0.000203 -0.000123 -0.000021
  1C   2py       -0.070523 -0.003164  0.000155  0.225957 -0.018941 -0.450049
  1C   1dz2       0.000102 -0.001069  0.003815  0.000090  0.000666 -0.001481
  1C   1dxz      -0.000390  0.008718  0.000001 -0.002257 -0.026926 -0.014915
  1C   1dyz       0.001241  0.000114  0.000000  0.000767 -0.000080 -0.003554
  1C   1dx2y2     0.000069 -0.000622 -0.006610  0.000097  0.000381 -0.000789
  1C   1dxy       0.008709  0.000393  0.000013  0.026926 -0.002258  0.035848
  2H   1s         0.015448 -0.249990  0.021667  0.011576  0.114906 -0.059562
  2H   2s         0.011120 -0.180603  0.022798  0.011824  0.117428 -0.270994
  3H   1s         0.208724  0.138312  0.021694  0.093730 -0.067469 -0.088686
  3H   2s         0.150701  0.099934  0.022742  0.095689 -0.068852 -0.402396
  4H   1s        -0.224168  0.111556  0.021677 -0.105310 -0.047419  0.148228
  4H   2s        -0.161855  0.080636  0.022734 -0.107510 -0.048397  0.671205
  5N   1s         0.000001  0.000021  0.109622 -0.000009  0.000003 -0.000017
  5N   2s        -0.000003 -0.000005 -0.249037  0.000021 -0.000012  0.000054
  5N   1pz        0.004160 -0.092476  0.000003 -0.037876 -0.451764 -0.164283
  5N   1px       -0.000080 -0.000016 -0.500645  0.000452 -0.000046  0.000249
  5N   1py       -0.092471 -0.004160  0.000472  0.451757 -0.037878  0.395013
  5N   3s         0.000012 -0.000446 -0.292224  0.000022  0.000071  0.000032
  5N   2pz        0.001843 -0.041029 -0.000000 -0.021752 -0.259469 -0.194519
  5N   2px       -0.000039  0.000113 -0.315274  0.000264 -0.000048  0.000293
  5N   2py       -0.041023 -0.001850  0.000299  0.259452 -0.021756  0.467708
  5N   1dz2      -0.000001  0.000011 -0.015994  0.000005  0.000022 -0.000188
  5N   1dxz      -0.000454  0.010104  0.000001  0.002678  0.031944 -0.002340
  5N   1dyz      -0.000010 -0.000009  0.000000  0.000021 -0.000030 -0.000443
  5N   1dx2y2     0.000017  0.000004  0.027703 -0.000056  0.000017 -0.000089
  5N   1dxy       0.010102  0.000455 -0.000051 -0.031943  0.002678  0.005625
                     12        13        14        15        16        17
                   0.04015   0.08711   0.16353   0.16358   0.18786   0.28986
                   0.00000   0.00000   0.00000   0.00000   0.00000   0.00000
                  --------  --------  --------  --------  --------  --------
  0C   1s        -0.000143 -0.152724 -0.000092 -0.000029 -0.052877  0.059731
  0C   2s        -0.000078  0.229824 -0.000537  0.000184  0.103692  0.220774
  0C   1pz        0.072843  0.000074  0.443490 -0.043804 -0.000909  0.000696
  0C   1px       -0.000180 -0.072355  0.000392  0.000619  0.421874  0.331105
  0C   1py        0.030250  0.000115  0.043780  0.443469 -0.000653 -0.000258
  0C   3s         0.003071  2.113869  0.005670 -0.000317  0.544055 -3.775144
  0C   2pz        0.376337  0.000793  1.329370 -0.131025 -0.003230  0.002168
  0C   2px        0.000510 -0.458847  0.007588  0.001211  1.497405 -2.394233
  0C   2py        0.156461  0.000308  0.131067  1.329676 -0.001931  0.001360
  0C   1dz2      -0.010333 -0.000627 -0.011038  0.001668  0.019394 -0.009645
  0C   1dxz       0.038037 -0.000071 -0.014478  0.001434  0.000014  0.000041
  0C   1dyz       0.005655  0.000005  0.001921  0.012793 -0.000009  0.000005
  0C   1dx2y2    -0.005936  0.001124 -0.006439  0.000922 -0.033504  0.016541
  0C   1dxy       0.015826  0.000014 -0.001417 -0.014449  0.000067 -0.000011
  1C   1s         0.000033  0.025626  0.000310  0.000071  0.127531 -0.032166
  1C   2s        -0.000092  0.037620 -0.000505 -0.000029 -0.146552  0.208083
  1C   1pz        0.393459 -0.000758 -0.212328  0.020923  0.000510 -0.000200
  1C   1px        0.000241  0.039468  0.000786 -0.000070  0.256427 -0.188730
  1C   1py        0.163677  0.000115 -0.020914 -0.212111  0.000059  0.000132
  1C   3s        -0.000790 -0.835776 -0.004252 -0.001412 -2.464679 -1.081570
  1C   2pz        0.449959 -0.000713 -0.573301  0.056508  0.001213 -0.000931
  1C   2px        0.000914 -0.384610  0.008187 -0.000903  0.397720 -5.019597
  1C   2py        0.187158  0.000513 -0.056554 -0.573476  0.000375  0.003870
  1C   1dz2      -0.003102 -0.007317 -0.008765  0.001300 -0.013437 -0.014396
  1C   1dxz      -0.035852  0.000056 -0.000211  0.000032 -0.000001 -0.000039
  1C   1dyz       0.001728  0.000001  0.001513  0.010129 -0.000009 -0.000001
  1C   1dx2y2    -0.001817  0.012679 -0.005081  0.000786  0.023327  0.024899
  1C   1dxy      -0.014909 -0.000032 -0.000016 -0.000231 -0.000040 -0.000028
  2H   1s        -0.136680 -0.028365 -0.043816  0.005104  0.063773 -0.035335
  2H   2s        -0.621308 -1.079693 -1.635101  0.189338  0.373807  0.139927
  3H   1s         0.119943 -0.028634  0.026661  0.035832  0.063314 -0.034451
  3H   2s         0.543126 -1.078389  0.983406  1.322888  0.367344  0.142926
  4H   1s         0.016739 -0.028698  0.017864 -0.040875  0.063283 -0.034486
  4H   2s         0.075214 -1.078683  0.655774 -1.511647  0.369527  0.143093
  5N   1s        -0.000007 -0.028513  0.000019 -0.000047 -0.056376 -0.099355
  5N   2s         0.000043  0.039515  0.000398  0.000093  0.156012  0.030836
  5N   1pz       -0.394964  0.000567  0.186607 -0.018388 -0.000380  0.000183
  5N   1px       -0.000176 -0.084353 -0.000344  0.000008 -0.210700 -0.016240
  5N   1py       -0.164293 -0.000065  0.018402  0.186488 -0.000025  0.000006
  5N   3s        -0.000320  0.662798 -0.005302  0.000900  0.601714  4.543001
  5N   2pz       -0.467633  0.000661  0.328369 -0.032363 -0.000699  0.000318
  5N   2px       -0.000133 -0.315290  0.001451 -0.000185 -0.441817 -1.703362
  5N   2py       -0.194520  0.000100  0.032381  0.328360 -0.000012  0.001547
  5N   1dz2      -0.000390 -0.006146 -0.001320  0.000193 -0.009061 -0.023056
  5N   1dxz      -0.005629  0.000023  0.005061 -0.000497 -0.000017  0.000010
  5N   1dyz       0.000217 -0.000000  0.000225  0.001536 -0.000001 -0.000000
  5N   1dx2y2    -0.000219  0.010644 -0.000782  0.000136  0.015702  0.039929
  5N   1dxy      -0.002341 -0.000022  0.000499  0.005050 -0.000035 -0.000069
                     18        19        20        21        22        23
                   0.53154   0.53164   0.58551   0.63109   0.63111   0.68628
                   0.00000   0.00000   0.00000   0.00000   0.00000   0.00000
                  --------  --------  --------  --------  --------  --------
  0C   1s         0.000000 -0.000007 -0.030651 -0.000001 -0.000004  0.016969
  0C   2s        -0.000154 -0.000652  0.205283  0.000308  0.000352 -0.046768
  0C   1pz       -0.073592 -0.438770 -0.000490  0.510076  0.411519 -0.000303
  0C   1px        0.000405  0.000051  0.758914  0.000991  0.000264 -0.202133
  0C   1py        0.439544 -0.073785 -0.000461  0.411604 -0.510222  0.000348
  0C   3s        -0.000078  0.000313  1.377002  0.001075  0.000993 -0.952791
  0C   2pz        0.163775  0.977607  0.002446 -1.420519 -1.145803  0.000493
  0C   2px       -0.000868 -0.000227 -0.484497 -0.001112  0.000609 -0.171113
  0C   2py       -0.979214  0.164338  0.000247 -1.145325  1.420060 -0.000459
  0C   1dz2      -0.014105 -0.064264 -0.005807  0.062815  0.056084  0.015687
  0C   1dxz       0.001402  0.008740  0.000094 -0.008373 -0.006664 -0.000027
  0C   1dyz      -0.074320  0.016329 -0.000005 -0.064686  0.072474 -0.000025
  0C   1dx2y2    -0.008196 -0.037249  0.009630  0.036368  0.032494 -0.027138
  0C   1dxy      -0.008672  0.001508 -0.000024 -0.006696  0.008222  0.000044
  1C   1s         0.000002  0.000020  0.066538  0.000057  0.000040 -0.040419
  1C   2s        -0.000147 -0.000928 -0.013623  0.000341  0.000663  0.851433
  1C   1pz       -0.130931 -0.780875  0.000741 -0.412961 -0.332955  0.000034
  1C   1px        0.000696  0.000307  0.058573 -0.000497  0.000226  0.600019
  1C   1py        0.780462 -0.130738 -0.000137 -0.333433  0.413377 -0.000593
  1C   3s         0.000017  0.000500  2.495305  0.001573  0.002101  0.398570
  1C   2pz        0.093563  0.557544 -0.001886  0.952472  0.768067 -0.000114
  1C   2px       -0.000966 -0.001336  2.951329  0.003570  0.002497 -1.320904
  1C   2py       -0.556492  0.093131 -0.002108  0.768271 -0.952586  0.001235
  1C   1dz2      -0.002200 -0.009986 -0.084531  0.012017  0.010729  0.014906
  1C   1dxz      -0.001489 -0.008907 -0.000021 -0.027354 -0.022049  0.000025
  1C   1dyz      -0.011564  0.002551 -0.000001 -0.012444  0.013989 -0.000006
  1C   1dx2y2    -0.001251 -0.005823  0.146359  0.007100  0.006442 -0.025826
  1C   1dxy       0.008850 -0.001478 -0.000219 -0.022138  0.027414  0.000020
  2H   1s        -0.060119 -0.325637 -0.111664  0.222322  0.185435  0.053645
  2H   2s        -0.056048 -0.302971 -0.128242  0.415427  0.346820  0.014798
  3H   1s        -0.252054  0.215015 -0.110344 -0.271364  0.099214  0.053417
  3H   2s        -0.234697  0.199673 -0.127683 -0.508182  0.186566  0.015153
  4H   1s         0.312205  0.110691 -0.110244  0.048911 -0.284836  0.053485
  4H   2s         0.290548  0.102458 -0.127755  0.092838 -0.533333  0.015545
  5N   1s        -0.000008 -0.000013  0.078194  0.000064  0.000094  0.053211
  5N   2s        -0.000009 -0.000055 -0.186461 -0.000230 -0.000268 -0.041922
  5N   1pz       -0.020072 -0.119773  0.000387 -0.273755 -0.220744 -0.000020
  5N   1px        0.000130  0.000070 -0.430753 -0.000636 -0.000342 -0.213746
  5N   1py        0.119435 -0.020033  0.000239 -0.220871  0.273901  0.000113
  5N   3s         0.000407  0.000976 -3.256611 -0.002739 -0.003394  0.147254
  5N   2pz        0.020789  0.124306  0.000302  0.023231  0.018721  0.000054
  5N   2px       -0.000291 -0.000400  1.868732  0.001585  0.002197  1.171900
  5N   2py       -0.124270  0.020879 -0.001613  0.018950 -0.023522 -0.000920
  5N   1dz2      -0.000179 -0.000811  0.050279  0.001356  0.001216 -0.054973
  5N   1dxz       0.011002  0.065630 -0.000044  0.024512  0.019763  0.000005
  5N   1dyz      -0.000941  0.000148  0.000000 -0.001366  0.001496 -0.000001
  5N   1dx2y2    -0.000211 -0.000426 -0.087089  0.000700  0.000558  0.095214
  5N   1dxy      -0.065602  0.010992  0.000143  0.019811 -0.024560 -0.000150
                     24        25        26        27        28        29
                   0.79821   0.81195   0.81197   0.85276   0.85286   0.88968
                   0.00000   0.00000   0.00000   0.00000   0.00000   0.00000
                  --------  --------  --------  --------  --------  --------
  0C   1s        -0.064836  0.000111  0.000044  0.000041  0.000003 -0.036210
  0C   2s         0.038131 -0.000150  0.000120 -0.001575  0.000134  0.955538
  0C   1pz        0.001286  0.014351  0.650483 -0.474828 -0.012356 -0.000691
  0C   1px        0.110740  0.000258 -0.000325  0.001044 -0.000356 -0.680338
  0C   1py        0.000883  0.649940 -0.014254  0.012475 -0.474691  0.000544
  0C   3s        -1.505647  0.002521  0.001259  0.001719  0.000043 -1.788469
  0C   2pz       -0.002527 -0.029337 -1.331460  0.358925  0.009026  0.000910
  0C   2px       -1.596909  0.001613  0.002014 -0.002703  0.000549  1.074046
  0C   2py       -0.000924 -1.330596  0.029314 -0.009330  0.358751 -0.000968
  0C   1dz2       0.048332  0.001664 -0.062685  0.136688 -0.003284 -0.063827
  0C   1dxz       0.000086  0.002439  0.107592 -0.091019 -0.002479 -0.000097
  0C   1dyz       0.000109  0.072343  0.001990 -0.003682 -0.157957 -0.000019
  0C   1dx2y2    -0.083682  0.001276 -0.036160  0.078840 -0.001988  0.110676
  0C   1dxy       0.000278  0.107531 -0.002320  0.002311 -0.091108 -0.000117
  1C   1s         0.008137 -0.000003 -0.000026 -0.000001  0.000005  0.038590
  1C   2s        -1.176979  0.001748  0.001208 -0.000941  0.000195  0.152784
  1C   1pz       -0.000040 -0.006257 -0.282244 -0.330926 -0.008852 -0.000489
  1C   1px        0.720055 -0.001437 -0.000449  0.000366 -0.000321 -0.382222
  1C   1py       -0.000996 -0.282356  0.006337  0.008719 -0.330971  0.000329
  1C   3s         2.218076 -0.003511 -0.002575  0.002330 -0.000429 -0.671133
  1C   2pz        0.000706  0.019045  0.861523  0.919995  0.024614  0.000955
  1C   2px       -2.791207  0.005033  0.002382 -0.001827  0.001093  0.391002
  1C   2py        0.003349  0.861750 -0.019290 -0.024325  0.920018 -0.000276
  1C   1dz2       0.010678 -0.000432  0.014273 -0.003138  0.000068 -0.050328
  1C   1dxz       0.000009  0.000059  0.003214  0.128636  0.003399  0.000113
  1C   1dyz      -0.000021 -0.016418 -0.000473  0.000003  0.003610 -0.000006
  1C   1dx2y2    -0.018477 -0.000165  0.008167 -0.001815  0.000242  0.087132
  1C   1dxy       0.000049  0.003286 -0.000114 -0.003402  0.128615 -0.000171
  2H   1s        -0.380675 -0.002138 -0.504418  0.668312  0.006356 -0.477315
  2H   2s        -0.166204  0.006831  1.229637 -1.069646 -0.009848  0.958125
  3H   1s        -0.379331  0.438965  0.250524 -0.328071 -0.582032 -0.478114
  3H   2s        -0.170454 -1.067180 -0.608988  0.524000  0.930864  0.959851
  4H   1s        -0.380644 -0.434898  0.255027 -0.339323  0.575698 -0.478142
  4H   2s        -0.167306  1.060975 -0.620035  0.541847 -0.920668  0.960164
  5N   1s        -0.013260  0.000019  0.000023  0.000002 -0.000000 -0.018025
  5N   2s         0.138682 -0.000291 -0.000193 -0.000114  0.000035  0.076788
  5N   1pz        0.000371  0.015483  0.696495  0.548835  0.014639  0.000555
  5N   1px        0.192847  0.000184 -0.000067 -0.000024  0.000438 -0.382160
  5N   1py        0.001029  0.696905 -0.015612 -0.014483  0.548275  0.000263
  5N   3s         1.010088 -0.001399 -0.000681  0.000636 -0.000132  0.006735
  5N   2pz       -0.000700 -0.023441 -1.056072 -1.021131 -0.027231 -0.001014
  5N   2px       -0.258518 -0.000484  0.000197 -0.000005 -0.000809  0.189905
  5N   2py       -0.001439 -1.056650  0.023684  0.026977 -1.020497 -0.000087
  5N   1dz2      -0.019672 -0.000070  0.003961 -0.002826  0.000062  0.036271
  5N   1dxz      -0.000013 -0.000096 -0.004172 -0.022995 -0.000604 -0.000012
  5N   1dyz      -0.000007 -0.004585 -0.000124  0.000101  0.003267 -0.000001
  5N   1dx2y2     0.034082 -0.000149  0.002317 -0.001639  0.000007 -0.062833
  5N   1dxy      -0.000059 -0.004179  0.000091  0.000616 -0.022994  0.000108
                     30        31        32        33        34        35
                   1.05564   1.39199   1.40766   1.40767   1.52635   1.52636
                   0.00000   0.00000   0.00000   0.00000   0.00000   0.00000
                  --------  --------  --------  --------  --------  --------
  0C   1s        -0.016960  0.134611 -0.000240 -0.000040  0.000003 -0.000014
  0C   2s         1.497316  1.603090 -0.002852 -0.000068  0.000112 -0.000218
  0C   1pz       -0.000412 -0.000294 -0.166694  0.049162  0.000015  0.001431
  0C   1px        0.283197 -0.074381  0.000079 -0.000004  0.000002  0.000006
  0C   1py       -0.000067 -0.000130 -0.049151 -0.166704  0.001390 -0.000047
  0C   3s        -1.823295 -6.126459  0.010594 -0.000008 -0.000723  0.000737
  0C   2pz        0.000723  0.000316  0.119366 -0.035205 -0.004944 -0.241185
  0C   2px        0.506754 -1.645847  0.002741  0.000060 -0.000390  0.000135
  0C   2py       -0.000406  0.001236  0.035217  0.119410 -0.241071  0.005024
  0C   1dz2      -0.005364  0.008670  0.263780 -0.092370  0.001366 -0.045404
  0C   1dxz      -0.000004  0.000846  0.494181 -0.145936  0.002230  0.105032
  0C   1dyz       0.000057 -0.000299 -0.107049 -0.304504  0.052402  0.001476
  0C   1dx2y2     0.009345 -0.014014  0.152503 -0.052788  0.000887 -0.026206
  0C   1dxy      -0.000067  0.000479  0.145524  0.494315  0.105081 -0.002107
  1C   1s        -0.040860 -0.011771  0.000019 -0.000026 -0.000008  0.000001
  1C   2s         0.685529 -0.860348  0.001412  0.000234 -0.000040  0.000082
  1C   1pz       -0.000224  0.000064  0.070489 -0.020787  0.000264  0.010485
  1C   1px        0.387263 -0.006987  0.000057  0.000158  0.000026 -0.000000
  1C   1py       -0.000345  0.000131  0.020783  0.070494  0.010476 -0.000168
  1C   3s        -0.136174  5.296726 -0.009306 -0.003171 -0.000511 -0.000465
  1C   2pz        0.000360 -0.000236 -0.175037  0.051610  0.001385  0.069679
  1C   2px        1.384247 -1.794708  0.002631 -0.002014 -0.000974  0.000206
  1C   2py       -0.000966  0.000781 -0.051619 -0.175040  0.069676 -0.001493
  1C   1dz2       0.041225 -0.113174  0.118159 -0.041141  0.018203 -0.612724
  1C   1dxz      -0.000036 -0.000762 -0.487002  0.143500 -0.001982 -0.118638
  1C   1dyz       0.000001 -0.000112 -0.047453 -0.136338  0.707502  0.021048
  1C   1dx2y2    -0.071417  0.196288  0.067552 -0.024739  0.010277 -0.353760
  1C   1dxy       0.000219 -0.000832 -0.143666 -0.486924 -0.118708  0.002915
  2H   1s        -0.069968  0.527956  0.137849 -0.043619  0.000398  0.099847
  2H   2s         0.718795  0.401723 -0.150500  0.046938  0.000525  0.127021
  3H   1s        -0.070333  0.527473 -0.107990 -0.098594 -0.086724 -0.049667
  3H   2s         0.719987  0.402405  0.114750  0.106280 -0.110179 -0.063182
  4H   1s        -0.070572  0.527753 -0.032726  0.141795  0.086348 -0.050324
  4H   2s         0.720294  0.402140  0.033514 -0.153123  0.109778 -0.064081
  5N   1s         0.047052 -0.012564  0.000019  0.000004 -0.000004  0.000001
  5N   2s        -0.210768  0.944099 -0.001737 -0.001322 -0.000314 -0.000065
  5N   1pz        0.000174  0.000283  0.170741 -0.050355  0.001069  0.049796
  5N   1px        0.693110 -0.187386  0.000356  0.000318  0.000043  0.000014
  5N   1py       -0.000581  0.000323  0.050334  0.170750  0.049795 -0.000986
  5N   3s        -1.110052 -1.776805  0.003593  0.004208  0.001374  0.000093
  5N   2pz       -0.000259  0.000129  0.087258 -0.025727 -0.000698 -0.034725
  5N   2px       -0.032429  1.078905 -0.002014 -0.001548 -0.000482 -0.000073
  5N   2py       -0.000111 -0.000624  0.025731  0.087252 -0.034725  0.000737
  5N   1dz2      -0.069168  0.018871  0.056624 -0.019790  0.014869 -0.500797
  5N   1dxz       0.000018  0.000454  0.297082 -0.087672  0.002151  0.075917
  5N   1dyz       0.000000 -0.000051 -0.023220 -0.065295  0.578277  0.017063
  5N   1dx2y2     0.119794 -0.032567  0.032878 -0.010915  0.008697 -0.289142
  5N   1dxy      -0.000240  0.000416  0.087537  0.297139  0.075844 -0.000979
                     36        37        38        39        40        41
                   1.62844   1.89358   1.89363   1.96589   1.96597   2.15000
                   0.00000   0.00000   0.00000   0.00000   0.00000   0.00000
                  --------  --------  --------  --------  --------  --------
  0C   1s        -0.083199 -0.000002 -0.000034  0.000017  0.000001 -0.000689
  0C   2s        -1.136950 -0.000006 -0.000192  0.000125 -0.000030 -0.222613
  0C   1pz       -0.000004  0.025385 -0.021305  0.022296 -0.031433 -0.000000
  0C   1px        0.171978  0.000076  0.000073 -0.000062 -0.000040 -0.052144
  0C   1py       -0.000208  0.021282  0.025382 -0.031441 -0.022313  0.000045
  0C   3s         7.891496 -0.000059  0.001925 -0.001009 -0.000052 -0.599979
  0C   2pz       -0.000269 -0.523309  0.439098 -0.026306  0.037517  0.000080
  0C   2px        2.704110 -0.000446  0.000410 -0.000265 -0.000008  0.193826
  0C   2py       -0.001403 -0.438914 -0.523313  0.037179  0.026703 -0.000387
  0C   1dz2      -0.113106 -0.315165  0.292738  0.011998 -0.015062 -0.494315
  0C   1dxz      -0.000075 -0.373373  0.313818 -0.247840  0.349672  0.000057
  0C   1dyz      -0.000110  0.338134  0.363803  0.017769  0.013428  0.000111
  0C   1dx2y2     0.195652 -0.182401  0.168373  0.007486 -0.008344  0.856282
  0C   1dxy       0.000070 -0.313180 -0.373989  0.349410  0.248127 -0.001246
  1C   1s         0.058938  0.000002  0.000019 -0.000010 -0.000004 -0.009041
  1C   2s         0.861103  0.000006  0.000386 -0.000190 -0.000017 -0.557816
  1C   1pz       -0.000055  0.134586 -0.112957  0.075423 -0.106402  0.000019
  1C   1px       -0.088868  0.000082 -0.000014 -0.000008 -0.000035  0.582061
  1C   1py        0.000063  0.112909  0.134639 -0.106332 -0.075501 -0.000348
  1C   3s         1.226695 -0.000132 -0.000618  0.000197 -0.000072 -1.490377
  1C   2pz        0.000344  0.382271 -0.320810  0.093429 -0.132052 -0.000193
  1C   2px        9.079005 -0.000043  0.002210 -0.001055 -0.000240 -1.989952
  1C   2py       -0.006973  0.320687  0.382392 -0.131731 -0.093719  0.001710
  1C   1dz2      -0.136165 -0.147403  0.136738  0.324053 -0.411274 -0.101389
  1C   1dxz       0.000002 -0.196231  0.164887 -0.032818  0.047196  0.000044
  1C   1dyz       0.000033  0.158198  0.169901  0.474960  0.374106 -0.000037
  1C   1dx2y2     0.235861 -0.085406  0.078583  0.187214 -0.237371  0.175595
  1C   1dxy      -0.000655 -0.164597 -0.196511  0.046482  0.033645 -0.000282
  2H   1s        -0.276483  0.165874 -0.144124 -0.081251  0.110530  0.232425
  2H   2s        -0.315173  0.172932 -0.150119  0.018603 -0.025406 -0.036202
  3H   1s        -0.276530 -0.207620 -0.071847 -0.055082 -0.125606  0.232501
  3H   2s        -0.315393 -0.216419 -0.074666  0.012680  0.028897 -0.036410
  4H   1s        -0.276493  0.041753  0.215487  0.136581  0.015079  0.232613
  4H   2s        -0.315569  0.043393  0.224770 -0.031175 -0.003519 -0.036292
  5N   1s         0.046751 -0.000002  0.000008 -0.000004 -0.000001 -0.014198
  5N   2s         1.701178 -0.000036  0.000240 -0.000161 -0.000066 -0.895364
  5N   1pz        0.000034  0.124946 -0.104847  0.034897 -0.049266 -0.000016
  5N   1px        0.259247  0.000055  0.000107 -0.000017 -0.000004  0.286587
  5N   1py       -0.000108  0.104820  0.124973 -0.049196 -0.034959 -0.000238
  5N   3s        -9.693171  0.000344 -0.001484  0.000813  0.000216  2.958529
  5N   2pz        0.000040 -0.267776  0.224735 -0.091121  0.128686  0.000040
  5N   2px        2.871823 -0.000276  0.000162 -0.000126 -0.000007 -1.142001
  5N   2py       -0.002643 -0.224642 -0.267877  0.128465  0.091319  0.000903
  5N   1dz2      -0.081552  0.246459 -0.228465 -0.378901  0.480690 -0.039769
  5N   1dxz       0.000013  0.417517 -0.350841  0.191760 -0.271643 -0.000046
  5N   1dyz       0.000054 -0.264524 -0.283807 -0.555442 -0.437080  0.000027
  5N   1dx2y2     0.141286  0.142839 -0.131177 -0.219216  0.277219  0.068892
  5N   1dxy      -0.000138  0.350237  0.418154 -0.270596 -0.192936  0.000071
                     42        43        44        45        46        47
                   2.20723   2.20726   2.75554   2.75557   2.76598   3.22802
                   0.00000   0.00000   0.00000   0.00000   0.00000   0.00000
                  --------  --------  --------  --------  --------  --------
  0C   1s         0.000007  0.000006  0.000060 -0.000084  0.034591  0.065319
  0C   2s         0.000004  0.000101  0.000059 -0.000141  0.019073 -0.117020
  0C   1pz       -0.120621  0.054797  0.060909  0.007507 -0.000086  0.000012
  0C   1px       -0.000008 -0.000122 -0.000523  0.000706 -0.298609 -0.498665
  0C   1py       -0.054810 -0.120634 -0.007515  0.060909  0.000361  0.000320
  0C   3s        -0.000643 -0.000440 -0.004189  0.005981 -2.374670 -1.413854
  0C   2pz       -0.476931  0.216571 -0.044012 -0.005435  0.000073 -0.000042
  0C   2px       -0.000618 -0.000333 -0.001799  0.002507 -1.021387 -0.840447
  0C   2py       -0.216581 -0.476701  0.005431 -0.044040  0.000388  0.000542
  0C   1dz2      -0.700260  0.361611 -0.104770 -0.008059  0.186767  0.344505
  0C   1dxz       0.440224 -0.199375  0.496599  0.061313 -0.000729  0.000012
  0C   1dyz       0.417258  0.808655 -0.009109  0.121353  0.000324 -0.000002
  0C   1dx2y2    -0.404007  0.209270 -0.061343 -0.003039 -0.323154 -0.596743
  0C   1dxy       0.200359  0.439711 -0.061154  0.496629  0.001637  0.000728
  1C   1s        -0.000003 -0.000007 -0.000218  0.000292 -0.120437 -0.055189
  1C   2s        -0.000138  0.000027 -0.002304  0.003088 -1.300579  0.870268
  1C   1pz       -0.137749  0.062585  0.240338  0.029633 -0.000380  0.000018
  1C   1px        0.000019 -0.000124 -0.001816  0.002417 -0.990242  0.762791
  1C   1py       -0.062590 -0.137799 -0.029631  0.240310  0.001445 -0.000654
  1C   3s         0.000199 -0.000188 -0.003002  0.003838 -1.649428  2.249342
  1C   2pz        0.143381 -0.065089  0.214037  0.026400 -0.000434  0.000037
  1C   2px       -0.000935 -0.000262 -0.006551  0.009286 -3.724347 -0.694831
  1C   2py        0.065153  0.143366 -0.026386  0.214069  0.003464  0.000425
  1C   1dz2       0.222652 -0.115016  0.016532  0.001585 -0.128816 -0.787551
  1C   1dxz      -0.166771  0.075487  1.081834  0.133378 -0.001678  0.000035
  1C   1dyz      -0.132622 -0.257189  0.000539 -0.019430 -0.000048  0.000000
  1C   1dx2y2     0.128388 -0.066616  0.009867  0.001786  0.223078  1.364099
  1C   1dxy      -0.075931 -0.166555 -0.133407  1.081831  0.002568 -0.002024
  2H   1s         0.674134 -0.319950  0.170865  0.018124  0.013397 -0.016021
  2H   2s        -0.057507  0.027389 -0.072106 -0.007772  0.033165 -0.015529
  3H   1s        -0.614121 -0.423811 -0.069696 -0.157146  0.013348 -0.016059
  3H   2s         0.052357  0.036331  0.029525  0.066275  0.033168 -0.015525
  4H   1s        -0.059913  0.743755 -0.101149  0.138862  0.014133 -0.016069
  4H   2s         0.004973 -0.063513  0.042808 -0.058785  0.032920 -0.015510
  5N   1s        -0.000004 -0.000003 -0.000147  0.000195 -0.082239  0.028031
  5N   2s        -0.000084 -0.000120 -0.001926  0.002677 -1.046050 -0.691266
  5N   1pz        0.030986 -0.014071 -0.191904 -0.023662  0.000293  0.000045
  5N   1px       -0.000018  0.000061 -0.000185  0.000035 -0.142196  0.979595
  5N   1py        0.014083  0.030997  0.023662 -0.191899 -0.000414 -0.000876
  5N   3s         0.000785  0.000475  0.009947 -0.013516  5.584654 -0.894178
  5N   2pz        0.013522 -0.006167 -0.342801 -0.042272  0.000452  0.000002
  5N   2px       -0.000184 -0.000151 -0.004413  0.005696 -2.479845  0.656797
  5N   2py        0.006132  0.013531  0.042272 -0.342821  0.001259 -0.000532
  5N   1dz2      -0.138115  0.071345 -0.006766  0.001030 -0.609754  0.446888
  5N   1dxz      -0.263355  0.119821  0.936907  0.115529 -0.001379 -0.000070
  5N   1dyz       0.082572  0.159399 -0.001286  0.006537  0.000018  0.000000
  5N   1dx2y2    -0.079974  0.040745 -0.001607 -0.001127  1.056142 -0.774037
  5N   1dxy      -0.119548 -0.263558 -0.115518  0.936893  0.000690  0.001422

MULLIKEN ATOMIC CHARGES
-----------------------
   0 C :   -0.522191
   1 C :    0.212647
   2 H :    0.207455
   3 H :    0.207641
   4 H :    0.207612
   5 N :   -0.313164
Sum of atomic charges:   -0.0000000

LOEWDIN ATOMIC CHARGES
----------------------
   0 C :   -0.377555
   1 C :   -0.014825
   2 H :    0.166847
   3 H :    0.166890
   4 H :    0.166879
   5 N :   -0.108236

  Mayer bond orders larger than 0.1
B(  0-C ,  1-C ) :   1.0423 B(  0-C ,  2-H ) :   0.9216 B(  0-C ,  3-H ) :   0.9216
B(  0-C ,  4-H ) :   0.9217 B(  1-C ,  5-N ) :   3.0150

FINAL SINGLE POINT ENERGY      -132.670538753983

DIPOLE MOMENT
-------------
                                X             Y             Z
Electronic contribution:      3.20806      -0.00218      -0.00021
Nuclear contribution   :     -4.70635       0.00331      -0.00007
                        -----------------------------------------
Total Dipole Moment    :     -1.49829       0.00112      -0.00027
                        -----------------------------------------
Magnitude (a.u.)       :      1.49829
Magnitude (Debye)      :      3.80835

Rotational constants in cm-1:     5.287630     0.305162     0.305161
Rotational constants in MHz : 158519.156897  9148.524315  9148.502382

                             ****ORCA TERMINATED NORMALLY****
TOTAL RUN TIME: 0 days 0 hours 0 minutes 24 seconds 549 msec
