                         Program Version 4.1.0  - RELEASE  -
|  1> ! B3LYP 6-31G* TIGHTSCF Grid3 FinalGrid5 Opt
|  2> !NormalPrint
|  3> %output
|  4> Print[P_Basis] 2
|  5> Print[P_MOS] 1
|  6> end
|  7> *xyzfile 0 1 /Users/lailaal-madhagi/Desktop/Testing_XAS_Analysis_code/CarbonMonoxide/CarbonMonoxide_geom.xyz                           ****END OF INPUT****
 Total Charge           Charge          ....    0
 Multiplicity           Mult            ....    1
 Number of Electrons    NEL             ....   14
FINAL SINGLE POINT ENERGY      -113.254430179388
FINAL SINGLE POINT ENERGY      -113.254649072806
FINAL SINGLE POINT ENERGY      -113.254651468456
                    ***********************HURRAY********************

CARTESIAN COORDINATES (ANGSTROEM)
---------------------------------
  C     -1.760476   -0.005606    0.306790
  O     -0.660764    0.135386    0.050760

 Multiplicity           Mult            ....    1
 Number of Electrons    NEL             ....   14
 Basis Dimension        Dim             ....   28

ORBITAL ENERGIES
----------------

  NO   OCC          E(Eh)            E(eV)
   0   2.0000     -19.249577      -523.8076
   1   2.0000     -10.297441      -280.2076
   2   2.0000      -1.153822       -31.3971
   3   2.0000      -0.565759       -15.3951
   4   2.0000      -0.463451       -12.6112
   5   2.0000      -0.463449       -12.6111
   6   2.0000      -0.367341        -9.9959
   7   0.0000      -0.017853        -0.4858
   8   0.0000      -0.017852        -0.4858
   9   0.0000       0.267222         7.2715
  10   0.0000       0.515476        14.0268
  11   0.0000       0.515477        14.0268

------------------
MOLECULAR ORBITALS
------------------
                      0         1         2         3         4         5
                 -19.24958 -10.29744  -1.15382  -0.56576  -0.46345  -0.46345
                   2.00000   2.00000   2.00000   2.00000   2.00000   2.00000
                  --------  --------  --------  --------  --------  --------
  0C   1s         0.000284 -0.995198  0.114309  0.132707  0.000001  0.000001
  0C   2s        -0.000369 -0.033754 -0.216070 -0.285501 -0.000002 -0.000002
  0C   1pz        0.000190  0.001365  0.049089  0.025419  0.076653  0.297855
  0C   1px       -0.000816 -0.005864 -0.210847 -0.109185 -0.021316  0.078229
  0C   1py       -0.000105 -0.000752 -0.027032 -0.013999  0.305460 -0.069286
  0C   3s         0.007975  0.004538 -0.048108 -0.205213 -0.000001 -0.000001
  0C   2pz       -0.001133  0.000482 -0.003225 -0.005545  0.030964  0.120320
  0C   2px        0.004866 -0.002068  0.013852  0.023813 -0.008610  0.031601
  0C   2py        0.000624 -0.000265  0.001776  0.003053  0.123391 -0.027988
  0C   1dz2       0.000590  0.001133  0.015148  0.002674 -0.003733 -0.014505
  0C   1dxz       0.000524  0.001006  0.013454  0.002375  0.009856  0.033771
  0C   1dyz       0.000067  0.000129  0.001725  0.000304 -0.007401  0.006560
  0C   1dx2y2    -0.001107 -0.002125 -0.028420 -0.005016 -0.007304  0.010520
  0C   1dxy      -0.000289 -0.000554 -0.007409 -0.001308  0.036558 -0.007156
  1O   1s         0.995071  0.000273  0.201547 -0.113612 -0.000000 -0.000001
  1O   2s         0.029344  0.000068 -0.445453  0.268655  0.000001  0.000002
  1O   1pz        0.000574  0.000363 -0.039988 -0.109752  0.137063  0.532582
  1O   1px       -0.002464 -0.001557  0.171757  0.471396 -0.038115  0.139877
  1O   1py       -0.000316 -0.000200  0.022020  0.060436  0.546188 -0.123887
  1O   3s        -0.017291  0.007945 -0.356161  0.406335  0.000000  0.000001
  1O   2pz       -0.001042  0.001447 -0.008672 -0.053319  0.082422  0.320269
  1O   2px        0.004475 -0.006215  0.037248  0.229016 -0.022920  0.084117
  1O   2py        0.000574 -0.000797  0.004776  0.029361  0.328451 -0.074500
  1O   1dz2      -0.000096 -0.000906  0.004626  0.010248  0.003187  0.012387
  1O   1dxz      -0.000085 -0.000805  0.004109  0.009102 -0.008417 -0.028838
  1O   1dyz      -0.000011 -0.000103  0.000527  0.001167  0.006319 -0.005602
  1O   1dx2y2     0.000180  0.001701 -0.008679 -0.019226  0.006237 -0.008983
  1O   1dxy       0.000047  0.000443 -0.002263 -0.005012 -0.031220  0.006111
                      6         7         8         9        10        11
                  -0.36734  -0.01785  -0.01785   0.26722   0.51548   0.51548
                   2.00000   0.00000   0.00000   0.00000   0.00000   0.00000
                  --------  --------  --------  --------  --------  --------
  0C   1s         0.143392 -0.000000  0.000000  0.032984  0.000000  0.000000
  0C   2s        -0.258529 -0.000001  0.000000  0.081539 -0.000000  0.000001
  0C   1pz       -0.099534  0.217227 -0.492375  0.037231  0.963452  0.132171
  0C   1px        0.427518 -0.014504 -0.141132 -0.159929  0.237929 -0.095473
  0C   1py        0.054811  0.507610  0.206674 -0.020506 -0.106254  0.984661
  0C   3s        -0.618068  0.000001 -0.000001 -2.007630 -0.000003 -0.000005
  0C   2pz       -0.030498  0.236642 -0.536382  0.424460 -1.112369 -0.152598
  0C   2px        0.130992 -0.015803 -0.153744 -1.823140 -0.274709  0.110225
  0C   2py        0.016794  0.552981  0.225147 -0.233738  0.122677 -1.136856
  0C   1dz2      -0.013698  0.001568 -0.003554  0.000652 -0.010469 -0.001437
  0C   1dxz      -0.012167 -0.003949  0.008225  0.000579  0.024469  0.004160
  0C   1dyz      -0.001560  0.001616  0.001991  0.000074  0.003995 -0.005721
  0C   1dx2y2     0.025700  0.001425  0.003000 -0.001224  0.006779 -0.005974
  0C   1dxy       0.006700 -0.009052 -0.003375 -0.000319 -0.002041  0.026202
  1O   1s        -0.011589  0.000000 -0.000000 -0.100079 -0.000000 -0.000000
  1O   2s         0.038597 -0.000001  0.000000  0.175464  0.000001  0.000002
  1O   1pz        0.063963 -0.161013  0.364958  0.025722  0.069846  0.009582
  1O   1px       -0.274743  0.010752  0.104608 -0.110484  0.017248 -0.006922
  1O   1py       -0.035225 -0.376248 -0.153190 -0.014165 -0.007703  0.071384
  1O   3s         0.014704  0.000000  0.000001  2.119865  0.000003  0.000003
  1O   2pz        0.034542 -0.170934  0.387448  0.192669  0.058434  0.008016
  1O   2px       -0.148369  0.011414  0.111055 -0.827564  0.014429 -0.005793
  1O   2py       -0.019023 -0.399434 -0.162632 -0.106101 -0.006445  0.059717
  1O   1dz2      -0.002520  0.001560 -0.003534 -0.023884  0.031085  0.004264
  1O   1dxz      -0.002238 -0.003927  0.008180 -0.021213 -0.072653 -0.012353
  1O   1dyz      -0.000287  0.001609  0.001980 -0.002720 -0.011862  0.016986
  1O   1dx2y2     0.004727  0.001416  0.002985  0.044809 -0.020127  0.017739
  1O   1dxy       0.001232 -0.009002 -0.003356  0.011682  0.006061 -0.077803
                     12        13        14        15        16        17
                   0.58793   0.75462   0.83617   0.92024   0.92025   1.48294
                   0.00000   0.00000   0.00000   0.00000   0.00000   0.00000
                  --------  --------  --------  --------  --------  --------
  0C   1s        -0.073676 -0.060961 -0.066126  0.000001 -0.000000 -0.000002
  0C   2s         1.217187  1.044526 -0.479580  0.000007  0.000000 -0.000005
  0C   1pz        0.154304 -0.199099 -0.023971  0.106026  0.029452  0.000004
  0C   1px       -0.662770  0.855181  0.102969  0.020441  0.020586 -0.000012
  0C   1py       -0.084974  0.109642  0.013203  0.033097 -0.107072 -0.000002
  0C   3s        -1.607430 -0.415449 -0.489808  0.000006  0.000000 -0.000208
  0C   2pz       -0.096558  0.104733  0.088877 -0.562238 -0.156180  0.000031
  0C   2px        0.414737 -0.449861 -0.381794 -0.108394 -0.109153 -0.000132
  0C   2py        0.053175 -0.057678 -0.048955 -0.175501  0.567763 -0.000016
  0C   1dz2       0.009771  0.055323  0.098853  0.022109  0.006143 -0.373324
  0C   1dxz       0.008679  0.049137  0.087798 -0.052375 -0.012753 -0.164844
  0C   1dyz       0.001113  0.006300  0.011256 -0.003045 -0.014845  0.503008
  0C   1dx2y2    -0.018334 -0.103794 -0.185459 -0.008373 -0.017746 -0.261123
  0C   1dxy      -0.004780 -0.027059 -0.048350 -0.018470  0.054008  0.055994
  1O   1s        -0.022026  0.063442 -0.039607  0.000001 -0.000000  0.000003
  1O   2s         0.094757 -0.244417  0.197101 -0.000008  0.000002 -0.000139
  1O   1pz       -0.024666 -0.060862 -0.186280 -0.868677 -0.241307  0.000001
  1O   1px        0.105942  0.261417  0.800051 -0.167493 -0.168643  0.000007
  1O   1py        0.013582  0.033515  0.102565 -0.271156  0.877217  0.000002
  1O   3s         0.313642 -0.024856  0.504473 -0.000001 -0.000003  0.000346
  1O   2pz        0.091687 -0.154648  0.316984  1.233975  0.342780  0.000023
  1O   2px       -0.393812  0.664253 -1.361422  0.237929  0.239563 -0.000111
  1O   2py       -0.050489  0.085164 -0.174533  0.385185 -1.246106 -0.000016
  1O   1dz2      -0.014036 -0.087225 -0.041311 -0.009715 -0.002701 -0.325979
  1O   1dxz      -0.012467 -0.077473 -0.036693  0.023015  0.005604 -0.143938
  1O   1dyz      -0.001598 -0.009933 -0.004705  0.001340  0.006522  0.439212
  1O   1dx2y2     0.026334  0.163648  0.077512  0.003678  0.007799 -0.228003
  1O   1dxy       0.006865  0.042663  0.020207  0.008119 -0.023740  0.048892
                     18        19        20        21        22        23
                   1.48294   1.51104   1.54438   1.54438   1.94648   1.94648
                   0.00000   0.00000   0.00000   0.00000   0.00000   0.00000
                  --------  --------  --------  --------  --------  --------
  0C   1s        -0.000003  0.030628  0.000001 -0.000000 -0.000000  0.000000
  0C   2s        -0.000005  0.077957  0.000002 -0.000000 -0.000008  0.000007
  0C   1pz        0.000003 -0.043069 -0.269686 -0.002828  0.000001 -0.000001
  0C   1px       -0.000014  0.185019 -0.061399 -0.035846 -0.000007  0.000007
  0C   1py       -0.000002  0.023723 -0.010798  0.274451 -0.000001  0.000000
  0C   3s        -0.000233  2.510961  0.000055 -0.000019 -0.000019  0.000019
  0C   2pz        0.000034 -0.366659  0.131785  0.001385  0.000001 -0.000004
  0C   2px       -0.000147  1.574872  0.030041  0.017505 -0.000012  0.000013
  0C   2py       -0.000020  0.201910  0.005282 -0.134121 -0.000002 -0.000000
  0C   1dz2      -0.438682 -0.111938 -0.238504 -0.002501 -0.403313  0.445691
  0C   1dxz      -0.059756 -0.099390  0.560093 -0.012099 -0.173842  0.057095
  0C   1dyz      -0.453721 -0.012739  0.070315  0.140929  0.510224  0.489194
  0C   1dx2y2    -0.245473  0.209825  0.131629  0.155780 -0.280128  0.247715
  0C   1dxy      -0.169583  0.054697  0.040949 -0.591825  0.053017  0.178638
  1O   1s         0.000003 -0.035603 -0.000001  0.000000  0.000000  0.000000
  1O   2s        -0.000156  1.699179  0.000037 -0.000013 -0.000013  0.000012
  1O   1pz       -0.000002  0.012298 -0.175525 -0.001841 -0.000000 -0.000001
  1O   1px        0.000007 -0.052817 -0.039966 -0.023330 -0.000003  0.000004
  1O   1py       -0.000002 -0.006772 -0.007029  0.178635 -0.000001 -0.000002
  1O   3s         0.000388 -4.200649 -0.000092  0.000031  0.000038 -0.000037
  1O   2pz        0.000030 -0.312040 -0.055834 -0.000583  0.000006 -0.000002
  1O   2px       -0.000124  1.340300 -0.012681 -0.007429 -0.000013  0.000013
  1O   2py       -0.000012  0.171839 -0.002232  0.056806 -0.000000  0.000005
  1O   1dz2      -0.383040 -0.072580  0.219185  0.002300  0.445144 -0.491922
  1O   1dxz      -0.052177 -0.064412 -0.514740  0.011120  0.191865 -0.063020
  1O   1dyz      -0.396167 -0.008258 -0.064622 -0.129513 -0.563142 -0.539937
  1O   1dx2y2    -0.214333  0.136019 -0.120964 -0.143167  0.309180 -0.273408
  1O   1dxy      -0.148069  0.035465 -0.037632  0.543895 -0.058520 -0.197175
                     24        25        26        27
                   2.42318   2.60301   2.60302   2.95675
                   0.00000   0.00000   0.00000   0.00000
                  --------  --------  --------  --------
  0C   1s        -0.075932  0.000000  0.000000  0.110545
  0C   2s        -0.183972  0.000008  0.000005  1.770937
  0C   1pz       -0.031692  0.340347  0.011740 -0.345971
  0C   1px        0.136119  0.079496 -0.041726  1.486020
  0C   1py        0.017451 -0.001957  0.346815  0.190518
  0C   3s         0.224346  0.000005  0.000005  1.522066
  0C   2pz       -0.064705  0.302956  0.010451 -0.188576
  0C   2px        0.277922  0.070760 -0.037143  0.809975
  0C   2py        0.035632 -0.001742  0.308713  0.103844
  0C   1dz2      -0.480014 -0.405703 -0.013997 -0.302085
  0C   1dxz      -0.426342  0.951371  0.063426 -0.268311
  0C   1dyz      -0.054660  0.130335 -0.234229 -0.034399
  0C   1dx2y2     0.900564  0.235718 -0.254791  0.566748
  0C   1dxy       0.234776  0.024339  1.009377  0.147749
  1O   1s         0.027679  0.000000  0.000000  0.066352
  1O   2s        -0.802377  0.000000  0.000001  0.528415
  1O   1pz       -0.157082 -0.065412 -0.002257 -0.106145
  1O   1px        0.674709 -0.015274  0.008022  0.455925
  1O   1py        0.086504  0.000377 -0.066649  0.058454
  1O   3s         0.155277 -0.000011 -0.000010 -3.313853
  1O   2pz        0.092932 -0.531254 -0.018329 -0.434142
  1O   2px       -0.399166 -0.124069  0.065144  1.864749
  1O   2py       -0.051176  0.003057 -0.541348  0.239077
  1O   1dz2      -0.083373 -0.413780 -0.014274  0.649129
  1O   1dxz      -0.074052  0.970332  0.064693  0.576537
  1O   1dyz      -0.009493  0.132929 -0.238902  0.073917
  1O   1dx2y2     0.156417  0.240408 -0.259876 -1.217833
  1O   1dxy       0.040777  0.024821  1.029488 -0.317494

MULLIKEN ATOMIC CHARGES
-----------------------
   0 C :    0.157072
   1 O :   -0.157072
Sum of atomic charges:    0.0000000

LOEWDIN ATOMIC CHARGES
----------------------
   0 C :   -0.005592
   1 O :    0.005592

  Mayer bond orders larger than 0.1
B(  0-C ,  1-O ) :   2.4132

FINAL SINGLE POINT ENERGY      -113.254651470922

DIPOLE MOMENT
-------------
                                X             Y             Z
Electronic contribution:      0.01771       0.00227      -0.00412
Nuclear contribution   :      0.00697       0.00089      -0.00162
                        -----------------------------------------
Total Dipole Moment    :      0.02468       0.00316      -0.00575
                        -----------------------------------------
Magnitude (a.u.)       :      0.02554
Magnitude (Debye)      :      0.06491

Rotational constants in cm-1:     0.000000     1.897736     1.897736
Rotational constants in MHz :     0.000000 56892.702604 56892.702604

                             ****ORCA TERMINATED NORMALLY****
TOTAL RUN TIME: 0 days 0 hours 0 minutes 19 seconds 967 msec
